LAMMPS (2 Aug 2019)
# four cnt with 10% -OH functionalization
# slightly high volume fraction
# lammps code to simulate tension test on RVE of nanocomposite with crack
# crack needs to be initiated first
# system is already equilibrated
# delete some atoms from a region to intiate a crack
# no cnt fix in MS equilibration
# load equilibrated structure

read_restart    restart.npt_equi
  restoring atom style charge from restart
  orthogonal box = (-1.84417 -0.289544 2.49092) to (68.0465 69.6011 142.272)
  4 by 2 by 7 MPI processor grid
  pair style reax/c stores no restart info
  72897 atoms
  read_restart CPU = 0.26298 secs

# ReaxFF potential to define interatomic interactions

pair_style	reax/c control_file lgvdw yes
pair_coeff	* * ffield.reax.lg C C H O H C C C O O C C
Reading potential file ffield.reax.lg with DATE: 2012-01-06

neighbor	4 bin
neigh_modify	every 10 delay 0 check no

thermo 100
thermo_style custom step atoms temp press pe ke etotal vol density lx ly lz      #output variables

compute pnc_temp all temp
compute pnc_pe all pe/atom
compute pnc_stress all stress/atom pnc_temp pair bond
compute pnc_str all reduce sum c_pnc_stress[3]

variable tmpz equal "lz"
variable L0z equal ${tmpz}
variable L0z equal 139.781382701698
variable tmpx equal "lx"
variable L0x equal ${tmpx}
variable L0x equal 69.8906913508489
variable tmpy equal "ly"
variable L0y equal ${tmpy}
variable L0y equal 69.8906913508489

# define groups of atoms to delete

fix std all qeq/reax 1 0.0 10.0 1e-6 reax/c

region atoms_for_deletion block EDGE 20.0 EDGE EDGE 69.88596 72.38596            # NOTE: box size will change after equilibration
delete_atoms region atoms_for_deletion
Deleted 394 atoms, new total = 72503
reset_ids
Resetting atom IDs ...
Unused restart file global fix info:
  fix style: npt, fix ID: npt_equi
Neighbor list info ...
  update every 10 steps, delay 0 steps, check no
  max neighbors/atom: 2000, page size: 100000
  master list distance cutoff = 14
  ghost atom cutoff = 14
  binsize = 7, bins = 10 10 20
  2 neighbor lists, perpetual/occasional/extra = 2 0 0
  (1) pair reax/c, perpetual
      attributes: half, newton off, ghost
      pair build: half/bin/newtoff/ghost
      stencil: half/ghost/bin/3d/newtoff
      bin: standard
  (2) fix qeq/reax, perpetual, copy from (1)
      attributes: half, newton off, ghost
      pair build: copy
      stencil: none
      bin: none

reset_timestep 0
timestep 0.25
thermo_style custom step atoms temp press pe ke etotal vol density lx ly lz
fix 1 all npt temp 300.0 300.0 25.0 x 0.0 0.0 250.0 y 0.0 0.0 250.0 couple xy
fix 2 all deform 1 z erate 0.00001 units box
fix bd all reax/c/bonds 1000 bonds.reaxc
dump deform1 all custom 1000 dump.deform id type x y z

variable strainz equal "(lz-v_L0z)/v_L0z"
variable strainx equal "(lx-v_L0x)/v_L0x"
variable strainy equal "(ly-v_L0y)/v_L0y"
variable stressz equal "-pzz/10000"
variable p1 equal "v_stressz"
variable p2 equal "v_strainz"
variable p3 equal "v_strainx"
variable p4 equal "v_strainy"
fix 3 all print 100 "${p1} ${p2} ${p3} ${p4}" file pmma_pnc_crack.txt screen no

run 400000
Per MPI rank memory allocation (min/avg/max) = 312.1 | 330.3 | 343.9 Mbytes
Step Atoms Temp Press PotEng KinEng TotEng Volume Density Lx Ly Lz 
       0    72503     299.1657   -688.47364   -8038110.5    64654.103   -7973456.4    682791.34    1.2035592    69.890691    69.890691    139.78138 
     100    72503     306.8549    267.95662   -8040475.7    66315.851   -7974159.8    682900.26    1.2033672     69.88753     69.88753    139.81633 
     200    72503    305.75984    171.29462   -8041445.8    66079.192   -7975366.6     683061.9    1.2030825    69.887067    69.887067    139.85127 
     300    72503    303.80058   -336.79698   -8042282.1    65655.768   -7976626.4    683112.95    1.2029926    69.880949    69.880949    139.88622 
     400    72503    302.20446    736.49854   -8043088.2    65310.824   -7977777.4    683035.56    1.2031289    69.868264    69.868264    139.92116 
     500    72503    301.46098    948.43954   -8043798.9    65150.147   -7978648.8    682790.28    1.2035611    69.846996    69.846996    139.95611 
     600    72503    299.33025    1176.6537   -8043955.6    64689.665   -7979265.9    682417.39    1.2042187    69.819205    69.819205    139.99105 
     700    72503    298.22402   -144.96492   -8043983.1    64450.592   -7979532.5     682307.9     1.204412    69.804892    69.804892      140.026 
     800    72503    299.85501    100.01211   -8044167.6    64803.072   -7979364.5    682291.22    1.2044414     69.79533     69.79533    140.06095 
     900    72503    301.59149   -1462.5476     -8044219    65178.352   -7979040.6    682410.52    1.2042308    69.792725    69.792725    140.09589 
    1000    72503    302.06676   -523.62759   -8044333.9    65281.064   -7979052.8    682694.53    1.2037299    69.798543    69.798543    140.13084 
    1100    72503    300.25491     727.3286   -8044447.2    64889.497   -7979557.7    682852.13    1.2034521    69.797896    69.797896    140.16578 
    1200    72503    300.13727    1220.2024   -8044674.4    64864.074   -7979810.3     683109.8    1.2029981    69.802363    69.802363    140.20073 
    1300    72503    298.55934   -333.79187   -8044332.6    64523.059   -7979809.5    683248.57    1.2027538    69.800754    69.800754    140.23567 
    1400    72503    300.63757   -1413.3605   -8044399.7    64972.196   -7979427.5       683719    1.2019262    69.816081    69.816081    140.27062 
    1500    72503    300.93095    186.38395   -8044320.4    65035.599   -7979284.8    683836.07    1.2017205    69.813362    69.813362    140.30556 
    1600    72503    301.19205    413.27352   -8044595.3    65092.026   -7979503.3    684046.87    1.2013501    69.815428    69.815428    140.34051 
    1700    72503    299.21764   -1316.8413   -8044570.9    64665.327   -7979905.6    683820.24    1.2017483    69.795173    69.795173    140.37545 
    1800    72503    299.79146   -198.93023   -8044831.2    64789.339   -7980041.8     683645.7    1.2020551    69.777581    69.777581     140.4104 
    1900    72503    300.00133   -221.94899     -8044982    64834.695   -7980147.3     683748.2    1.2018749    69.774129    69.774129    140.44534 
    2000    72503    298.53869   -893.70171   -8044963.9    64518.598   -7980445.3    684056.11    1.2013339    69.781157    69.781157    140.48029 
    2100    72503    298.94186    651.44646   -8045309.9    64605.727   -7980704.2    684247.11    1.2009986     69.78222     69.78222    140.51523 
    2200    72503    299.94666   -1325.9523   -8045170.8    64822.879   -7980347.9    683950.89    1.2015187    69.758439    69.758439    140.55018 
    2300    72503    298.23806   -194.49556   -8044627.1    64453.626   -7980173.4    683551.21    1.2022213    69.729386    69.729386    140.58513 
    2400    72503    299.81255    280.17472   -8044848.8    64793.897   -7980054.9    683142.97    1.2029397    69.699898    69.699898    140.62007 
    2500    72503     300.3548   -604.69067     -8044879    64911.085   -7979967.9    683090.28    1.2030325    69.688552    69.688552    140.65502 
    2600    72503    300.03495    421.83796   -8044753.5    64841.961   -7979911.5    683001.22    1.2031894    69.675354    69.675354    140.68996 
    2700    72503    299.46686    1156.1457   -8044880.4    64719.188   -7980161.3    682669.32    1.2037743    69.649773    69.649773    140.72491 
    2800    72503    299.81817   -18.805246   -8045218.7    64795.111   -7980423.6    682373.93    1.2042954    69.626059    69.626059    140.75985 
    2900    72503    299.27713   -1113.5527     -8045279    64678.185   -7980600.8    682540.34    1.2040018    69.625906    69.625906     140.7948 
    3000    72503    299.85709   -831.22403   -8045428.4    64803.522   -7980624.9    682763.89    1.2036076    69.628666    69.628666    140.82974 
    3100    72503    298.06941   -95.863533     -8044968    64417.177   -7980550.8    683037.34    1.2031257     69.63397     69.63397    140.86469 
    3200    72503    300.02237    54.579309   -8045075.4    64839.242   -7980236.2    683325.54    1.2026183    69.640021    69.640021    140.89963 
    3300    72503    301.53353   -293.48858   -8045101.8    65165.826     -7979936    684121.83    1.2012185    69.671947    69.671947    140.93458 
    3400    72503    300.40232    220.11728   -8045074.7    64921.355   -7980153.4    684853.69    1.1999348    69.700562    69.700562    140.96952 
    3500    72503    299.71474      499.056   -8045250.5    64772.758   -7980477.7    685088.64    1.1995233    69.703878    69.703878    141.00447 
    3600    72503    298.66815   -1642.5814     -8045030    64546.576   -7980483.4    685740.75    1.1983826    69.728405    69.728405    141.03942 
    3700    72503    300.25685    360.70428     -8045232    64889.917   -7980342.1    686245.65    1.1975009     69.74543     69.74543    141.07436 
    3800    72503    300.06577   -1014.0515   -8045159.3    64848.621   -7980310.6    686244.13    1.1975036    69.736716    69.736716    141.10931 
    3900    72503    300.32306    1347.6207   -8045663.2    64904.224     -7980759    685683.45    1.1984828    69.699592    69.699592    141.14425 
    4000    72503    298.52889   -1143.5627     -8045603    64516.479   -7981086.5    685105.75    1.1994934    69.661601    69.661601     141.1792 
    4100    72503    299.25417   -922.14774   -8045505.8    64673.223   -7980832.6    684829.04     1.199978    69.638914    69.638914    141.21414 
    4200    72503    300.85344    609.85431   -8045503.9    65018.847   -7980485.1     684887.7    1.1998752    69.633281    69.633281    141.24909 
    4300    72503    300.07733   -38.538027   -8045220.8    64851.118   -7980369.6    685418.97    1.1989452    69.651668    69.651668    141.28403 
    4400    72503    300.40792   -1118.0533   -8045360.3    64922.564   -7980437.8    685594.77    1.1986378    69.651986    69.651986    141.31898 
    4500    72503    299.58175   -1897.2851   -8045539.2    64744.017   -7980795.2    685507.59    1.1987902    69.638948    69.638948    141.35392 
    4600    72503    298.99363    576.61437   -8045733.3    64616.916   -7981116.3    685245.63    1.1992485    69.617036    69.617036    141.38887 
    4700    72503    299.18499   -279.91721   -8045621.5    64658.272   -7980963.2    685678.23    1.1984919    69.630403    69.630403    141.42381 
    4800    72503    299.59012    229.72903   -8045134.2    64745.825   -7980388.3     686218.6    1.1975481     69.64923     69.64923    141.45876 
    4900    72503    300.51943    464.25237   -8045124.6    64946.664   -7980177.9    686600.02    1.1968829     69.65998     69.65998     141.4937 
    5000    72503    300.78781    1344.3186   -8045230.2    65004.664   -7980225.5    686489.87    1.1970749    69.645792    69.645792    141.52865 
    5100    72503     299.6959    376.69711   -8045385.6    64768.687   -7980616.9     686315.7    1.1973787    69.628361    69.628361     141.5636 
    5200    72503    299.82424    153.48267   -8045609.7    64796.424   -7980813.3    685905.48    1.1980948    69.598959    69.598959    141.59854 
    5300    72503    298.72959    102.60409   -8045296.4    64559.854   -7980736.6    686218.38    1.1975485    69.606244    69.606244    141.63349 
    5400    72503    300.49412   -1298.1176   -8045417.5    64941.193   -7980476.3    686465.61    1.1971172    69.610195    69.610195    141.66843 
    5500    72503    300.61443    1519.9074   -8045464.5    64967.194   -7980497.3    686621.94    1.1968447    69.609536    69.609536    141.70338 
    5600    72503    298.58416   -94.920091   -8045090.5    64528.422   -7980562.1    686774.05    1.1965796    69.608663    69.608663    141.73832 
    5700    72503     299.9175   -394.77378   -8045278.5    64816.577   -7980461.9     686865.8    1.1964197    69.604733    69.604733    141.77327 
    5800    72503    301.59027     606.2874   -8045228.2    65178.087   -7980050.1    686601.66      1.19688    69.582773    69.582773    141.80821 
    5900    72503    301.92917   -634.56375   -8045059.7    65251.329   -7979808.3    686200.46    1.1975798    69.553871    69.553871    141.84316 
    6000    72503    301.30459   -1267.6008   -8045241.4    65116.348   -7980125.1    686055.86    1.1978322    69.537977    69.537977     141.8781 
    6100    72503    300.98953    536.29924   -8045442.6    65048.259   -7980394.3    685985.76    1.1979546    69.525862    69.525862    141.91305 
    6200    72503    300.13016     322.2264   -8045497.5    64862.536   -7980634.9    686231.73    1.1975252    69.529766    69.529766    141.94799 
    6300    72503    299.47764   -1261.0993   -8045527.9    64721.517   -7980806.4     686738.4    1.1966417    69.546869    69.546869    141.98294 
    6400    72503    299.13146   -1093.3487     -8045161    64646.704   -7980514.3     687224.1     1.195796    69.562898    69.562898    142.01788 
    6500    72503    300.28523    -347.8284   -8045051.5     64896.05   -7980155.4    687268.49    1.1957187    69.556588    69.556588    142.05283 
    6600    72503    301.53848   -1725.3187   -8045373.9    65166.894     -7980207    687584.12    1.1951698    69.564002    69.564002    142.08778 
    6700    72503    300.04733   -145.85447   -8045237.9    64844.636   -7980393.3    688138.61    1.1942068     69.58349     69.58349    142.12272 
    6800    72503     299.9053     310.1924   -8045221.8    64813.942   -7980407.8    688565.68    1.1934661    69.596523    69.596523    142.15767 
    6900    72503    299.16025   -663.41602   -8045160.5    64652.924   -7980507.5    688624.39    1.1933644    69.590937    69.590937    142.19261 
    7000    72503    299.76831   -287.52728   -8045417.3    64784.335     -7980633    688458.99     1.193651    69.574031    69.574031    142.22756 
    7100    72503    299.30234   -293.87897   -8045349.7    64683.632   -7980666.1    687680.77    1.1950019    69.526156    69.526156     142.2625 
    7200    72503    299.27591   -1956.3023   -8045124.1     64677.92   -7980446.1     687488.3    1.1953364    69.507889    69.507889    142.29745 
    7300    72503     300.5529    787.96486   -8045196.5    64953.896   -7980242.6    687386.19     1.195514    69.494194    69.494194    142.33239 
    7400    72503    299.99332   -844.16256   -8045194.4    64832.964   -7980361.4    687621.74    1.1951044    69.497569    69.497569    142.36734 
    7500    72503    298.50981   -1020.0985   -8045332.9    64512.355   -7980820.5     687768.1    1.1948501    69.496437    69.496437    142.40228 
    7600    72503    299.90073    184.93668   -8045778.8    64812.954   -7980965.8    687849.21    1.1947092    69.492008    69.492008    142.43723 
    7700    72503    300.22298    1099.0659   -8045734.8    64882.597   -7980852.2    687890.75    1.1946371    69.485583    69.485583    142.47217 
    7800    72503    300.73738    114.11207   -8045521.8    64993.766     -7980528    688015.09    1.1944212    69.483342    69.483342    142.50712 
    7900    72503    301.62731   -574.87873   -8045703.3    65186.092   -7980517.2    688629.71    1.1933551    69.505849    69.505849    142.54207 
    8000    72503    301.67989      324.728   -8045929.3    65197.455   -7980731.8    688773.79    1.1931055    69.504601    69.504601    142.57701 
    8100    72503    299.50193   -320.54862   -8045548.8    64726.767     -7980822    688776.51    1.1931008    69.496222    69.496222    142.61196 
    8200    72503    300.41632   -125.13838   -8045466.1    64924.381   -7980541.7    688814.63    1.1930348    69.489632    69.489632     142.6469 
    8300    72503    300.73513   -501.03882   -8045336.3     64993.28     -7980343    688852.99    1.1929683    69.483057    69.483057    142.68185 
    8400    72503    300.29077   -2341.6357   -8045554.2    64897.246   -7980656.9    688714.23    1.1932087    69.467551    69.467551    142.71679 
    8500    72503    299.74265   -124.42885   -8045827.9    64778.791   -7981049.1    688614.05    1.1933823    69.453996    69.453996    142.75174 
    8600    72503    299.48292 -0.056857582   -8045640.7    64722.658   -7980918.1    688794.96    1.1930688    69.454618    69.454618    142.78668 
    8700    72503    301.21977   -193.56902   -8045655.5    65098.017   -7980557.5    688697.14    1.1932383    69.441189    69.441189    142.82163 
    8800    72503    301.70438   -470.48106   -8045662.2    65202.748   -7980459.5    688114.48    1.1942487    69.403318    69.403318    142.85657 
    8900    72503    301.39865   -463.38687   -8045607.7    65136.676     -7980471    688069.75    1.1943263    69.392576    69.392576    142.89152 
    9000    72503    300.53872    584.41184   -8045533.9    64950.833   -7980583.1    688089.53     1.194292    69.385089    69.385089    142.92646 
    9100    72503    300.67995    -2699.626   -8045573.3    64981.355   -7980591.9    688293.57    1.1939379    69.386894    69.386894    142.96141 
    9200    72503    300.96997    1240.7242   -8045635.6    65044.033   -7980591.6    688435.53    1.1936917    69.385569    69.385569    142.99635 
    9300    72503     300.9287    232.67275     -8045624    65035.112   -7980588.9    688355.72    1.1938301    69.373071    69.373071     143.0313 
    9400    72503    299.96615    91.914891   -8045579.6    64827.091   -7980752.5    688544.38     1.193503    69.374103    69.374103    143.06625 
    9500    72503    299.33723   -2705.5563   -8045778.7    64691.173   -7981087.5       688546    1.1935002    69.365713    69.365713    143.10119 
    9600    72503    298.10644    -637.2731     -8045521     64425.18   -7981095.8    688335.39    1.1938654    69.346637    69.346637    143.13614 
    9700    72503    300.87096      738.215   -8045750.1    65022.634   -7980727.5    688460.79    1.1936479    69.344489    69.344489    143.17108 
    9800    72503    299.24405   -108.76976   -8045195.2    64671.035   -7980524.2    688459.03     1.193651    69.335939    69.335939    143.20603 
    9900    72503    298.59871    321.91277   -8045163.3    64531.567   -7980631.8    688466.71    1.1936377    69.327868    69.327868    143.24097 
   10000    72503    298.70887    814.15712     -8045667    64555.376   -7981111.6    689158.53    1.1924394    69.354232    69.354232    143.27592 
   10100    72503    298.74073    411.83175   -8045777.6     64562.26   -7981215.3    689655.72    1.1915798    69.370786    69.370786    143.31086 
   10200    72503    298.47694   -913.15464   -8045281.2    64505.251     -7980776    689701.91       1.1915    69.364653    69.364653    143.34581 
   10300    72503     300.7614   -668.89162   -8045440.4    64998.956   -7980441.5    689859.97     1.191227    69.364146    69.364146    143.38075 
   10400    72503    301.94643   -874.75209   -8045633.5    65255.059   -7980378.5    690341.33    1.1903963    69.379887    69.379887     143.4157 
   10500    72503    299.55225   -832.09385   -8045372.8    64737.642   -7980635.1    690462.95    1.1901867    69.377547    69.377547    143.45064 
   10600    72503    299.78088   -1404.9348   -8045665.8    64787.051   -7980878.7    690695.98    1.1897851    69.380803    69.380803    143.48559 
   10700    72503    298.17536   -1369.3623   -8045399.1    64440.077     -7980959    691113.27    1.1890667    69.393308    69.393308    143.52053 
   10800    72503    301.06887   -149.96759   -8045413.3    65065.405   -7980347.9    691336.07    1.1886835    69.396045    69.396045    143.55548 
   10900    72503    300.69947   -357.95546   -8045192.3    64985.573   -7980206.7       690985    1.1892875     69.36998     69.36998    143.59043 
   11000    72503    299.50572   -282.31036   -8045163.5    64727.586   -7980435.9    690794.09    1.1896161    69.351958    69.351958    143.62537 
   11100    72503    299.04251   -1110.7528   -8045334.2     64627.48   -7980706.7    690820.12    1.1895713    69.344829    69.344829    143.66032 
   11200    72503    299.65372    7.1191394   -8045462.9     64759.57   -7980703.3    690502.33    1.1901188    69.320446    69.320446    143.69526 
   11300    72503    300.40768   -470.37634   -8045467.5    64922.513   -7980544.9    690208.86    1.1906248    69.297288    69.297288    143.73021 
   11400    72503    300.00483    15.246515   -8044987.3    64835.452   -7980151.9    690204.45    1.1906324    69.288644    69.288644    143.76515 
   11500    72503    301.45594   -237.90688   -8045238.2    65149.056   -7980089.1    690189.12    1.1906589    69.279455    69.279455     143.8001 
   11600    72503    300.27786   -157.35739   -8045401.2    64894.456   -7980506.7    690038.89    1.1909181    69.263499    69.263499    143.83504 
   11700    72503     299.7701   -483.67717   -8045315.8    64784.722   -7980531.1    689859.52    1.1912277    69.246086    69.246086    143.86999 
   11800    72503    300.98726   -151.46054   -8045420.7    65047.768   -7980372.9    689886.72    1.1911808    69.239042    69.239042    143.90493 
   11900    72503    300.41013   -112.42211   -8045295.7    64923.041   -7980372.7    689947.08    1.1910766    69.233665    69.233665    143.93988 
   12000    72503    299.75188    245.32062   -8045361.8    64780.786     -7980581    689722.32    1.1914647    69.213986    69.213986    143.97482 
   12100    72503    298.98744   -685.21075   -8045736.6    64615.577     -7981121    689931.72    1.1911031    69.216092    69.216092    144.00977 
   12200    72503    298.98374   -858.36411   -8045698.9    64614.778   -7981084.1    689760.02    1.1913996    69.199084    69.199084    144.04471 
   12300    72503    300.78476   -2084.7344   -8045659.5    65004.006   -7980655.5    689750.91    1.1914153    69.190234    69.190234    144.07966 
   12400    72503    299.59521   -897.03137     -8045202    64746.925   -7980455.1    690060.36     1.190881    69.197362    69.197362    144.11461 
   12500    72503    300.42335   -1052.0275   -8045223.9      64925.9     -7980298    690460.94    1.1901901    69.209054    69.209054    144.14955 
   12600    72503     300.0427   -2335.3534   -8045089.3    64843.635   -7980245.6    690745.41       1.1897     69.21492     69.21492     144.1845 
   12700    72503    298.97089   -710.00247   -8045102.5    64612.002   -7980490.5    690812.09    1.1895851    69.209874    69.209874    144.21944 
   12800    72503     298.3887   -1426.9195   -8045194.5    64486.183   -7980708.3    690696.71    1.1897839    69.195711    69.195711    144.25439 
   12900    72503    299.91857    26.705164   -8045353.2    64816.809   -7980536.4    690570.25    1.1900017    69.180998    69.180998    144.28933 
   13000    72503    300.68413   -1506.9835   -8045267.2    64982.258     -7980285    690536.92    1.1900592    69.170953    69.170953    144.32428 
   13100    72503    301.27093    152.04281   -8045155.3    65109.074   -7980046.2    690434.74    1.1902353    69.157462    69.157462    144.35922 
   13200    72503    301.08351   -1687.6348   -8045275.9    65068.571   -7980207.4    690908.64    1.1894189     69.17282     69.17282    144.39417 
   13300    72503    299.14503    81.621483   -8045357.8    64649.636   -7980708.2    691282.66    1.1887754     69.18317     69.18317    144.42911 
   13400    72503    298.72766   -877.49615   -8045322.6    64559.437   -7980763.1    690977.45    1.1893004     69.15953     69.15953    144.46406 
   13500    72503    301.20343   -168.85739   -8045460.3    65094.486   -7980365.8    690414.64    1.1902699    69.122998    69.122998      144.499 
   13600    72503    300.73369   -1490.3854   -8045184.5    64992.969   -7980191.5    690445.64    1.1902165    69.116193    69.116193    144.53395 
   13700    72503    299.86684    -1473.512   -8045105.9    64805.629   -7980300.3    690870.61    1.1894844    69.129104    69.129104     144.5689 
   13800    72503    298.91111    111.96196   -8045131.9    64599.082   -7980532.8    691289.27     1.188764    69.141691    69.141691    144.60384 
   13900    72503    299.52361   -1446.0566   -8045389.3    64731.453   -7980657.9    691468.25    1.1884563    69.142287    69.142287    144.63879 
   14000    72503    297.18888   -68.367406   -8045347.9    64226.883   -7981121.1    691037.21    1.1891976    69.112384    69.112384    144.67373 
   14100    72503    298.46828   -280.24167   -8045526.5     64503.38   -7981023.2    690639.29    1.1898828     69.08414     69.08414    144.70868 
   14200    72503    299.48528    618.57924   -8045274.5    64723.168   -7980551.4    690505.88    1.1901127    69.069128    69.069128    144.74362 
   14300    72503    299.53052   -15.404597   -8045097.7    64732.945   -7980364.7    690559.87    1.1900196    69.063491    69.063491    144.77857 
   14400    72503    301.03806    -1403.554   -8045329.1    65058.746   -7980270.4    690895.57    1.1894414    69.071941    69.071941    144.81351 
   14500    72503    300.74159   -944.38528   -8045203.4    64994.676   -7980208.7    691317.81    1.1887149    69.084709    69.084709    144.84846 
   14600    72503    301.18194    -739.1294   -8045166.5    65089.841   -7980076.7    691633.96    1.1881716     69.09217     69.09217     144.8834 
   14700    72503     300.4505   -1382.5998   -8045382.7    64931.767     -7980451    691940.14    1.1876458    69.099129    69.099129    144.91835 
   14800    72503    298.85905   -1717.1065   -8045294.1     64587.83   -7980706.3    692161.16    1.1872666    69.101833    69.101833    144.95329 
   14900    72503    299.38878    32.275424   -8045292.7    64702.313   -7980590.4    692024.07    1.1875018    69.086662    69.086662    144.98824 
   15000    72503    300.86801   -735.58152   -8045247.2    65021.998   -7980225.2    692093.42    1.1873828    69.081799    69.081799    145.02318 
   15100    72503    301.10049    945.81389   -8045130.9    65072.239   -7980058.7    691935.37     1.187654     69.06559     69.06559    145.05813 
   15200    72503    300.32959   -1180.2338   -8045544.5    64905.637   -7980638.9    691730.78    1.1880053    69.047063    69.047063    145.09308 
   15300    72503    301.65053    320.17726   -8045955.9    65191.112   -7980764.8    691928.37     1.187666    69.048609    69.048609    145.12802 
   15400    72503    299.38436   -166.64609   -8045213.1    64701.357   -7980511.7    692128.33    1.1873229    69.050272    69.050272    145.16297 
   15500    72503    301.02533   -1719.6874   -8045141.3    65055.996   -7980085.3    692146.73    1.1872913     69.04288     69.04288    145.19791 
   15600    72503    301.57171   -562.33245   -8045193.2    65174.077   -7980019.2     692017.6    1.1875129    69.028133    69.028133    145.23286 
   15700    72503    301.49373    483.74003   -8045515.9    65157.225   -7980358.6    692380.87    1.1868898    69.037944    69.037944     145.2678 
   15800    72503    298.45707    194.00115   -8045115.3    64500.958   -7980614.3    692458.74    1.1867563    69.033523    69.033523    145.30275 
   15900    72503    299.17717   -836.31494   -8045151.6    64656.582   -7980495.1    692444.86    1.1867801    69.024531    69.024531    145.33769 
   16000    72503     300.3634   -755.68656   -8045370.4    64912.943   -7980457.5    692755.73    1.1862476    69.031725    69.031725    145.37264 
   16100    72503    300.52308   -365.40096   -8045355.3    64947.453   -7980407.9    693303.29    1.1853107    69.050703    69.050703    145.40758 
   16200    72503    300.78496   -2504.9921   -8045032.5    65004.049   -7980028.4     693878.6    1.1843279    69.071047    69.071047    145.44253 
   16300    72503    301.29448   -848.24862   -8044900.6    65114.163   -7979786.5    694038.15    1.1840557     69.07069     69.07069    145.47747 
   16400    72503    300.45245    -654.4543   -8044924.4    64932.188   -7979992.2    693983.34    1.1841492    69.059669    69.059669    145.51242 
   16500    72503    299.13446   -15.058931   -8044974.6     64647.35   -7980327.3    693579.64    1.1848384    69.031291    69.031291    145.54736 
   16600    72503     299.3942   -1414.7279     -8045020    64703.486   -7980316.6    693022.13    1.1857916    68.995259    68.995259    145.58231 
   16700    72503    301.63376   -2053.8089   -8045452.2    65187.487   -7980264.7    692789.02    1.1861906    68.975376    68.975376    145.61726 
   16800    72503    299.67554     758.3509   -8045138.5    64764.287   -7980374.2    692843.69     1.186097    68.969822    68.969822     145.6522 
   16900    72503    299.16438   -2479.3894   -8045173.6    64653.816   -7980519.8    693089.37    1.1856765    68.973776    68.973776    145.68715 
   17000    72503    299.15159    751.33578   -8045374.6    64651.054   -7980723.6    692785.82     1.186196    68.950401    68.950401    145.72209 
   17100    72503    297.46577   -685.85013   -8045521.4    64286.724   -7981234.7    692752.95    1.1862523      68.9405      68.9405    145.75704 
   17200    72503    298.89389     -508.598   -8045666.3     64595.36     -7981071    692832.63    1.1861159    68.936201    68.936201    145.79198 
   17300    72503    299.41998    -877.4035   -8045329.1    64709.056   -7980620.1    692890.86    1.1860162    68.930837    68.930837    145.82693 
   17400    72503    300.32894   -1691.3106     -8045264    64905.495   -7980358.5    693050.75    1.1857426    68.930531    68.930531    145.86187 
   17500    72503    299.65505   -949.21054   -8044830.1    64759.858   -7980070.3    692768.94    1.1862249    68.908262    68.908262    145.89682 
   17600    72503    300.82376   -395.09928   -8044811.2    65012.434   -7979798.7     692667.4    1.1863988    68.894961    68.894961    145.93176 
   17700    72503    300.89165   -951.90984   -8044826.3    65027.105   -7979799.2    693028.59    1.1857805    68.904672    68.904672    145.96671 
   17800    72503    299.41842   -780.48356   -8045043.9     64708.72   -7980335.2    693488.06    1.1849949     68.91926     68.91926    146.00165 
   17900    72503     300.6316   -621.60256   -8045342.7    64970.906   -7980371.8    693720.44    1.1845979    68.922558    68.922558     146.0366 
   18000    72503     299.3093   -914.39847   -8045142.4    64685.136   -7980457.3    693601.86    1.1848005    68.908423    68.908423    146.07154 
   18100    72503    298.44993   -135.59196   -8044997.9    64499.414   -7980498.5    693683.01    1.1846618    68.904213    68.904213    146.10649 
   18200    72503    300.80729   -165.42239   -8045078.2    65008.875   -7980069.3     694089.9    1.1839674    68.916177    68.916177    146.14144 
   18300    72503     300.8268   -327.29471   -8044899.6    65013.091   -7979886.5    694459.97    1.1833364    68.926307    68.926307    146.17638 
   18400    72503    300.00502   -1814.7283   -8044910.1    64835.493   -7980074.6    694639.55    1.1830305    68.926979    68.926979    146.21133 
   18500    72503    299.68649   -15.726958   -8045008.7    64766.653   -7980242.1    694492.34    1.1832813    68.911441    68.911441    146.24627 
   18600    72503    299.47828   -100.64239   -8044945.5    64721.655   -7980223.8    694352.25      1.18352    68.896259    68.896259    146.28122 
   18700    72503    299.88514   -484.05454   -8045004.8    64809.584   -7980195.3    694682.74     1.182957    68.904423    68.904423    146.31616 
   18800    72503     300.1151   -758.83074   -8045030.4    64859.282   -7980171.2    695152.08    1.1821583    68.919466    68.919466    146.35111 
   18900    72503    299.78134   -792.48492   -8045081.4    64787.152   -7980294.2     695732.5    1.1811721    68.940002    68.940002    146.38605 
   19000    72503    300.30817   -1016.5302   -8045605.3    64901.008   -7980704.3    696015.37     1.180692    68.945787    68.945787      146.421 
   19100    72503    297.98229    200.11717   -8045088.9     64398.35   -7980690.5    695926.84    1.1808422    68.933177    68.933177    146.45594 
   19200    72503    298.74536    62.074357   -8044954.9    64563.262   -7980391.7    695860.17    1.1809554    68.921652    68.921652    146.49089 
   19300    72503    299.04025   -671.44723   -8044814.7    64626.992   -7980187.7     695796.8    1.1810629    68.910295    68.910295    146.52583 
   19400    72503    299.47258   -1770.2442   -8044747.3    64720.423   -7980026.9     695968.6    1.1807714    68.910586    68.910586    146.56078 
   19500    72503    300.45501   -717.81341   -8044761.7    64932.741     -7979829    696418.76    1.1800081    68.924651    68.924651    146.59573 
   19600    72503    301.96495    -1273.197   -8044862.6    65259.062   -7979603.5    697168.68    1.1787388    68.953533    68.953533    146.63067 
   19700    72503     301.3598   -816.13036   -8044800.2     65128.28   -7979671.9    697040.24     1.178956    68.938967    68.938967    146.66562 
   19800    72503    299.18201   -528.20011   -8044801.5    64657.628   -7980143.9    696903.51    1.1791873    68.923994    68.923994    146.70056 
   19900    72503    299.55525   -363.62018   -8044928.7    64738.291   -7980190.4    697099.84    1.1788552    68.925493    68.925493    146.73551 
   20000    72503    301.47702   -1396.3066   -8045311.1    65153.612   -7980157.5    697042.45    1.1789523    68.914451    68.914451    146.77045 
   20100    72503     298.6851    -890.1848   -8044883.9    64550.238   -7980333.6    696839.21    1.1792962    68.896201    68.896201     146.8054 
   20200    72503    298.92398   -199.02051   -8045090.2    64601.864   -7980488.4    696498.58    1.1798729    68.871164    68.871164    146.84034 
   20300    72503    299.84616   -2017.1825   -8045186.3    64801.159   -7980385.1    696068.51    1.1806019    68.841706    68.841706    146.87529 
   20400    72503    300.65959   -284.07523   -8044953.9    64976.953     -7979977    696117.58    1.1805187    68.835945    68.835945    146.91023 
   20500    72503     301.5255    548.42801   -8044994.2    65164.089   -7979830.1    696344.63    1.1801337    68.838983    68.838983    146.94518 
   20600    72503    300.99874   -1180.1877   -8045191.3    65050.249   -7980141.1    696714.93    1.1795065    68.849098    68.849098    146.98012 
   20700    72503    299.94083   -1221.3132   -8045245.1     64821.62   -7980423.5    696512.25    1.1798497    68.830901    68.830901    147.01507 
   20800    72503    299.91771    9.3560766   -8045248.7    64816.623   -7980432.1    696419.28    1.1800073    68.818128    68.818128    147.05001 
   20900    72503    300.67546   -1140.6275   -8045202.1    64980.384   -7980221.8    696447.98    1.1799586    68.811371    68.811371    147.08496 
   21000    72503    300.23839   -2219.6761   -8044798.6    64885.927   -7979912.7    696210.16    1.1803617    68.791449    68.791449    147.11991 
   21100    72503    301.01919   -697.25096     -8044955     65054.67   -7979900.3    696072.81    1.1805946    68.776496    68.776496    147.15485 
   21200    72503    298.68355    1097.0788     -8044972    64549.903   -7980422.1    696172.16    1.1804261    68.773238    68.773238     147.1898 
   21300    72503    298.03865   -2803.5136   -8044952.5     64410.53     -7980542    696127.37    1.1805021    68.762864    68.762864    147.22474 
   21400    72503     300.2968   -265.10934   -8045200.7    64898.549   -7980302.1    695667.97    1.1812816    68.732013    68.732013    147.25969 
   21500    72503    301.06088   -269.06881   -8045045.4     65063.68   -7979981.7    695793.43    1.1810686    68.730057    68.730057    147.29463 
   21600    72503    300.73597   -381.85918   -8044808.8    64993.461   -7979815.3    695984.04    1.1807452    68.731317    68.731317    147.32958 
   21700    72503    301.35806   -1890.9719   -8045150.2    65127.904   -7980022.2    696383.54    1.1800678    68.742889    68.742889    147.36452 
   21800    72503    299.96279   -1381.8904   -8045406.4    64826.365     -7980580     696516.7    1.1798422    68.741311    68.741311    147.39947 
   21900    72503     299.9699   -882.68254   -8045452.7    64827.902   -7980624.8    696322.67     1.180171     68.72359     68.72359    147.43441 
   22000    72503    300.38272   -42.632105   -8045286.5    64917.119   -7980369.4    696136.69    1.1804863    68.706269    68.706269    147.46936 
   22100    72503    300.77003   -1165.2579   -8045219.8    65000.823     -7980219    696166.33     1.180436    68.699593    68.699593     147.5043 
   22200    72503    300.27547   -819.97448   -8045059.9    64893.941     -7980166    696287.26     1.180231    68.697422    68.697422    147.53925 
   22300    72503    300.17166   -2209.6554   -8045184.3    64871.506   -7980312.8    696402.47    1.1800357     68.69497     68.69497    147.57419 
   22400    72503    299.82422   -1511.1021   -8045332.7    64796.417   -7980536.3    696570.62    1.1797509     68.69513     68.69513    147.60914 
   22500    72503    299.85143   -166.18642   -8045319.5    64802.299   -7980517.2     696581.4    1.1797326    68.687532    68.687532    147.64409 
   22600    72503    301.02517   -911.16562   -8045132.6    65055.962   -7980076.7    696687.74    1.1795525    68.684646    68.684646    147.67903 
   22700    72503    300.79431    -1080.294   -8044866.3    65006.069   -7979860.2    696728.64    1.1794833    68.678537    68.678537    147.71398 
   22800    72503    301.07126    -1450.096   -8045187.2    65065.922   -7980121.3    696817.66    1.1793326    68.674802    68.674802    147.74892 
   22900    72503    298.82419     -1054.18   -8044933.9    64580.298   -7980353.6    696992.95     1.179036    68.675318    68.675318    147.78387 
   23000    72503     300.6414    -256.8024   -8045253.1    64973.023   -7980280.1    697280.93    1.1785491    68.681384    68.681384    147.81881 
   23100    72503    301.35543   -630.53484   -8045399.4    65127.336     -7980272    697437.19     1.178285    68.680962    68.680962    147.85376 
   23200    72503    300.08543   -1819.0492   -8045105.1    64852.869   -7980252.2    697846.07    1.1775946    68.692974    68.692974     147.8887 
   23300    72503    300.08959   -1056.1038   -8044861.6    64853.769   -7980007.8    698335.32    1.1767696    68.708932    68.708932    147.92365 
   23400    72503    300.35679    215.26716   -8044617.1    64911.515   -7979705.5    698121.22    1.1771305    68.690285    68.690285    147.95859 
   23500    72503    301.13391   -1161.2043   -8044908.6    65079.462   -7979829.2    697889.82    1.1775208    68.670792    68.670792    147.99354 
   23600    72503    299.61978   -612.54856   -8045197.5    64752.237   -7980445.3     697818.1    1.1776418    68.659158    68.659158    148.02848 
   23700    72503    299.49039    -1321.463   -8045219.5    64724.274   -7980495.2    697581.96    1.1780405    68.639438    68.639438    148.06343 
   23800    72503    300.34549   -1562.3469     -8045069    64909.073     -7980160    697329.03    1.1784678    68.618896    68.618896    148.09837 
   23900    72503    301.46907   -623.27246   -8045065.6    65151.895   -7979913.7    696919.84    1.1791597    68.590669    68.590669    148.13332 
   24000    72503    299.63055   -192.13367   -8044866.2    64754.563   -7980111.6    696920.13    1.1791592    68.582594    68.582594    148.16827 
   24100    72503    299.91512   -566.63761   -8045239.6    64816.063   -7980423.5    697524.96    1.1781368    68.604258    68.604258    148.20321 
   24200    72503    299.58025   -798.23577   -8045094.9    64743.693   -7980351.2    698014.47    1.1773105    68.620237    68.620237    148.23816 
   24300    72503    299.47036   -265.89239     -8044943    64719.945   -7980223.1     698193.5    1.1770087    68.620948    68.620948     148.2731 
   24400    72503    299.90018   -603.17652   -8044904.2    64812.835   -7980091.4    698529.49    1.1764425     68.62937     68.62937    148.30805 
   24500    72503     299.7835    274.45102   -8044644.8    64787.617   -7979857.2    698799.47     1.175988    68.634546    68.634546    148.34299 
   24600    72503    300.20679   -1738.6949   -8044705.1    64879.098     -7979826    698813.26    1.1759648     68.62714     68.62714    148.37794 
   24700    72503    298.70581   -1334.6339   -8044872.2    64554.714   -7980317.5     698814.2    1.1759632    68.619107    68.619107    148.41288 
   24800    72503    298.78563   -940.71334   -8044905.7    64571.964   -7980333.7    699050.39    1.1755659    68.622624    68.622624    148.44783 
   24900    72503    299.57983   -1576.4414   -8044759.9    64743.602   -7980016.3    699318.52    1.1751152    68.627706    68.627706    148.48277 
   25000    72503    298.30117   -925.51133   -8044280.6    64467.264   -7979813.4    699285.77    1.1751702    68.618025    68.618025    148.51772 
   25100    72503    299.99014   -1690.6577   -8044569.2    64832.277   -7979736.9    698997.15    1.1756554    68.595793    68.595793    148.55266 
   25200    72503    300.86641   -487.02597   -8044869.2     65021.65   -7979847.5    698451.79    1.1765734    68.560965    68.560965    148.58761 
   25300    72503    299.78945    21.387789   -8044810.4    64788.905   -7980021.5    698130.03    1.1771157    68.537112    68.537112    148.62256 
   25400    72503    299.87354   -263.07764   -8044826.4    64807.077   -7980019.3    698022.95    1.1772962      68.5238      68.5238     148.6575 
   25500    72503    300.56436   -1682.6761   -8045029.3    64956.374   -7980072.9    698395.06     1.176669    68.534008    68.534008    148.69245 
   25600    72503     299.7048   -802.44567   -8044862.5    64770.609   -7980091.9    698462.17    1.1765559    68.529248    68.529248    148.72739 
   25700    72503    300.33621   -817.38964   -8044921.2    64907.066   -7980014.2    698207.41    1.1769852    68.508701    68.508701    148.76234 
   25800    72503    300.39982   -528.01286   -8044917.8    64920.814   -7979996.9     698098.8    1.1771683    68.495327    68.495327    148.79728 
   25900    72503    298.50074   -327.81706   -8044773.8    64510.395   -7980263.4    698723.26    1.1761163    68.517911    68.517911    148.83223 
   26000    72503    299.96431   -1306.0793   -8045118.8    64826.695   -7980292.1    699199.92    1.1753145    68.533232    68.533232    148.86717 
   26100    72503    299.65794    84.426232   -8044790.2    64760.482   -7980029.7    698952.12    1.1757312    68.513046    68.513046    148.90212 
   26200    72503    299.96918   -1861.2098   -8044598.5    64827.746   -7979770.7     699086.6     1.175505    68.511598    68.511598    148.93706 
   26300    72503    300.98664    -950.6471   -8044577.5    65047.634   -7979529.8    698933.33    1.1757628    68.496052    68.496052    148.97201 
   26400    72503    301.24952   -2323.9627   -8044490.3    65104.447   -7979385.8    699050.56    1.1755656    68.493763    68.493763    149.00695 
   26500    72503    299.67673    -1472.559     -8044567    64764.544   -7979802.4    699114.58     1.175458    68.488869    68.488869     149.0419 
   26600    72503    298.81114   -1680.7421   -8044650.9    64577.477   -7980073.5    699122.69    1.1754443    68.481238    68.481238    149.07684 
   26700    72503    300.19514     686.9903   -8045072.3    64876.581   -7980195.7    698899.94     1.175819    68.462304    68.462304    149.11179 
   26800    72503    299.15205   -398.08722   -8045028.6    64651.153   -7980377.4       699134    1.1754253    68.465745    68.465745    149.14674 
   26900    72503    300.34479    164.84654   -8045236.1    64908.921   -7980327.2    699171.92    1.1753616    68.459582    68.459582    149.18168 
   27000    72503    300.77785    771.40419   -8044930.3    65002.512   -7979927.8    699332.91     1.175091    68.459445    68.459445    149.21663 
   27100    72503     301.6255   -1021.3983   -8044891.7    65185.701     -7979706    699867.92    1.1741927    68.477609    68.477609    149.25157 
   27200    72503    300.23206   -365.51484   -8044780.9    64884.559   -7979896.4    699986.69    1.1739935    68.475403    68.475403    149.28652 
   27300    72503    297.41989   -835.12925   -8044546.2    64276.806   -7980269.4    699831.16    1.1742544    68.459783    68.459783    149.32146 
   27400    72503    299.45832    -1137.788   -8044906.7    64717.341   -7980189.3    699966.72     1.174027    68.458404    68.458404    149.35641 
   27500    72503     299.9018   -1894.2822     -8044801    64813.184   -7979987.9    700177.48    1.1736736    68.460701    68.460701    149.39135 
   27600    72503    300.03212   -678.44232   -8044724.6    64841.348   -7979883.2    700299.35    1.1734693    68.458652    68.458652     149.4263 
   27700    72503    300.61299   -664.07732   -8044786.9    64966.884     -7979820    700363.42     1.173362    68.453779    68.453779    149.46124 
   27800    72503    298.72938   -1347.6351     -8044736    64559.808   -7980176.2    700816.88    1.1726027    68.467933    68.467933    149.49619 
   27900    72503    298.98417     82.65178     -8045091    64614.871   -7980476.1    701503.48    1.1714551    68.493459    68.493459    149.53113 
   28000    72503    299.30136   -635.37763   -8044986.3     64683.42   -7980302.8     701832.9    1.1709052    68.501535    68.501535    149.56608 
   28100    72503    299.90079   -1965.4755   -8044716.8    64812.967   -7979903.8    702108.57    1.1704455    68.506985    68.506985    149.60102 
   28200    72503    300.34643   -1194.3461   -8044680.3    64909.276     -7979771    702335.69     1.170067    68.510063    68.510063    149.63597 
   28300    72503    299.85825   -463.78312   -8044611.2    64803.772   -7979807.5    702291.26     1.170141    68.499898    68.499898    149.67092 
   28400    72503    298.89141    -1095.534     -8044558    64594.825   -7979963.2    702339.84    1.1700601    68.494271    68.494271    149.70586 
   28500    72503    298.07268   -1388.1656   -8044690.4    64417.886   -7980272.5    702817.74    1.1692644    68.509575    68.509575    149.74081 
   28600    72503    297.87483   -409.54366   -8044909.4    64375.127   -7980534.3    702788.41    1.1693133    68.500153    68.500153    149.77575 
   28700    72503    300.24468   -888.32372     -8044862    64887.287   -7979974.7    702708.51    1.1694462     68.48827     68.48827     149.8107 
   28800    72503    300.79113   -1429.8402   -8044774.9    65005.382   -7979769.5    702866.42    1.1691835    68.487977    68.487977    149.84564 
   28900    72503    300.38748   -470.27097   -8044739.7    64918.147   -7979821.5    702731.81    1.1694074    68.473434    68.473434    149.88059 
   29000    72503    300.18513   -1029.3402     -8044744    64874.416   -7979869.6    703164.19    1.1686883    68.486513    68.486513    149.91553 
   29100    72503    299.99714   -2350.5629     -8044597    64833.788   -7979763.2    703187.53    1.1686496    68.479669    68.479669    149.95048 
   29200    72503    299.75266   -1906.3667   -8044381.9    64780.954   -7979600.9    702507.62    1.1697806     68.43858     68.43858    149.98542 
   29300    72503    301.46798   -185.86449   -8044547.7    65151.659   -7979396.1    702034.69    1.1705687    68.407571    68.407571    150.02037 
   29400    72503    300.11165   -1293.2647     -8044531    64858.536   -7979672.5    702107.92    1.1704466    68.403173    68.403173    150.05531 
   29500    72503    298.66853   -2080.3822   -8044560.4    64546.657   -7980013.8    702090.43    1.1704757    68.394357    68.394357    150.09026 
   29600    72503    300.50166   -1241.8398     -8044903    64942.823   -7979960.1    701962.94    1.1706883    68.380187    68.380187    150.12521 
   29700    72503    300.56152   -791.43443   -8044774.6    64955.759   -7979818.8    701637.09     1.171232    68.356359    68.356359    150.16015 
   29800    72503    301.01642    405.88539   -8044749.3    65054.071   -7979695.3    700907.21    1.1724516    68.312847    68.312847     150.1951 
   29900    72503    300.60002   -232.91557   -8044487.2    64964.081   -7979523.2    700316.71    1.1734402    68.276123    68.276123    150.23004 
   30000    72503    301.41711   -1786.5017   -8044567.2    65140.665   -7979426.5    700699.78    1.1727987    68.286852    68.286852    150.26499 
   30100    72503    299.60567   -1320.0288   -8044374.3    64749.186   -7979625.1    701393.41    1.1716389      68.3127      68.3127    150.29993 
   30200    72503    298.93705   -337.91834   -8044578.6    64604.688     -7979974    702137.46    1.1703973     68.34098     68.34098    150.33488 
   30300    72503    298.60607   -1754.0923   -8044552.1    64533.158   -7980018.9     702964.6    1.1690202    68.373275    68.373275    150.36982 
   30400    72503    300.71072   -1279.2901   -8044795.1    64988.004   -7979807.1    703331.89    1.1684097    68.383189    68.383189    150.40477 
   30500    72503    301.53196   -590.15884     -8044389    65165.485   -7979223.5    703654.69    1.1678737    68.390935    68.390935    150.43971 
   30600    72503     301.3764   -1810.1595   -8044322.5    65131.868   -7979190.6    703608.35    1.1679506    68.380742    68.380742    150.47466 
   30700    72503    301.24517   -1154.2943   -8044566.3    65103.506   -7979462.8    703788.41    1.1676518    68.381551    68.381551     150.5096 
   30800    72503    300.09963   -1319.9655   -8044448.9    64855.939   -7979592.9    703785.68    1.1676563    68.373482    68.373482    150.54455 
   30900    72503    300.98121    59.645031   -8044565.1    65046.461   -7979518.7    703747.57    1.1677196    68.363696    68.363696    150.57949 
   31000    72503    299.96039   -113.07692   -8044384.2    64825.848   -7979558.3    703923.21    1.1674282    68.364295    68.364295    150.61444 
   31100    72503    299.53827   -781.60313   -8044395.4    64734.621   -7979660.8    704162.96    1.1670307    68.368005    68.368005    150.64939 
   31200    72503    297.40137   -1059.9282   -8044489.3    64272.804   -7980216.5    704257.38    1.1668742     68.36466     68.36466    150.68433 
   31300    72503    298.64832   -389.31049   -8044617.8    64542.288   -7980075.5    704564.15    1.1663662     68.37162     68.37162    150.71928 
   31400    72503    299.74237   -1045.4838   -8044507.4    64778.729   -7979728.7     704699.7    1.1661418    68.370271    68.370271    150.75422 
   31500    72503    300.06357   -1214.4457   -8044469.9    64848.146   -7979621.8    704525.03    1.1664309    68.353876    68.353876    150.78917 
   31600    72503    299.13071   -1381.9353   -8044357.9     64646.54   -7979711.3    704216.54    1.1669419    68.330992    68.330992    150.82411 
   31700    72503    300.62322    280.01107   -8045023.6    64969.095   -7980054.5    704128.99     1.167087     68.31883     68.31883    150.85906 
   31800    72503    299.84073    1347.9594   -8044919.8    64799.987   -7980119.8    704007.68    1.1672881    68.305034    68.305034      150.894 
   31900    72503    299.79576    974.09246   -8044459.7    64790.267   -7979669.5     704234.4    1.1669123    68.308122    68.308122    150.92895 
   32000    72503    299.88801    773.74841   -8044193.1    64810.203   -7979382.9    703880.86    1.1674984    68.283069    68.283069    150.96389 
   32100    72503    300.55716   -1638.1116   -8044431.2    64954.819   -7979476.3     703958.6    1.1673695    68.278938    68.278938    150.99884 
   32200    72503    300.00324   -1312.7524   -8044522.2    64835.106   -7979687.1    704164.97    1.1670274    68.281044    68.281044    151.03378 
   32300    72503    300.03939   -1836.0009   -8044552.6     64842.92   -7979709.7    704539.97    1.1664062    68.291324    68.291324    151.06873 
   32400    72503    300.80826   -258.81971   -8044495.8    65009.084   -7979486.7    704561.65    1.1663703    68.284477    68.284477    151.10367 
   32500    72503    302.48874   -619.25141   -8044202.4    65372.259   -7978830.2    704133.72    1.1670792    68.255845    68.255845    151.13862 
   32600    72503    302.29071   -1406.2536   -8044236.1    65329.464   -7978906.7    703654.79    1.1678735    68.224741    68.224741    151.17357 
   32700    72503    301.32626   -980.14158   -8044457.6    65121.032   -7979336.6    703601.17    1.1679625    68.214258    68.214258    151.20851 
   32800    72503    299.74396   -755.81726   -8044356.6    64779.073   -7979577.5    703765.53    1.1676897    68.214343    68.214343    151.24346 
   32900    72503    299.81463    154.56473     -8044464    64794.347   -7979669.7    704028.22    1.1672541    68.219192    68.219192     151.2784 
   33000    72503    299.98444   -1561.3991   -8044600.9    64831.044   -7979769.9    704667.25    1.1661955    68.242264    68.242264    151.31335 
   33100    72503    299.44645   -1481.8379   -8044351.9    64714.777   -7979637.1    705336.44    1.1650891    68.266777    68.266777    151.34829 
   33200    72503    301.07523   -1308.1855   -8044313.9    65066.779   -7979247.1    705478.16    1.1648551    68.265754    68.265754    151.38324 
   33300    72503    300.07309   -1609.4655   -8044108.6    64850.202   -7979258.4    705158.18    1.1653836    68.242395    68.242395    151.41818 
   33400    72503    298.78302   -956.11846   -8044165.4      64571.4     -7979594    704700.76    1.1661401    68.212387    68.212387    151.45313 
   33500    72503    299.11511   -74.908964   -8044606.7     64643.17   -7979963.5    704680.93    1.1661729    68.203559    68.203559    151.48807 
   33600    72503    298.43391   -854.74826   -8044527.2    64495.951   -7980031.2    704792.25    1.1659887     68.20108     68.20108    151.52302 
   33700    72503    300.55209   -1945.1803   -8044271.2    64953.722   -7979317.5    704942.22    1.1657406    68.200472    68.200472    151.55796 
   33800    72503    301.60674   -1080.3145   -8044342.7    65181.648     -7979161    704747.25    1.1660631     68.18318     68.18318    151.59291 
   33900    72503    299.66183   -546.23842   -8044223.1    64761.324   -7979461.8       704580    1.1663399    68.167232    68.167232    151.62785 
   34000    72503    299.73805   -2050.2356     -8044611    64777.795   -7979833.2    704156.22    1.1670419    68.138878    68.138878     151.6628 
   34100    72503    299.44142   -2513.7828   -8044576.4    64713.689   -7979862.7    703984.25     1.167327    68.122709    68.122709    151.69775 
   34200    72503    300.76372   -2213.1506   -8044611.5    64999.457   -7979612.1    704684.58    1.1661668    68.148736    68.148736    151.73269 
   34300    72503    302.73169   -1298.3982   -8044634.6    65424.766   -7979209.9     705352.5    1.1650626    68.173175    68.173175    151.76764 
   34400    72503    300.35893    216.71789   -8044239.5    64911.978   -7979327.5    705411.09    1.1649658    68.168159    68.168159    151.80258 
   34500    72503    300.39007   -240.02227   -8044399.2    64918.707   -7979480.5    705374.12    1.1650269    68.158528    68.158528    151.83753 
   34600    72503    299.62592   -2173.8326   -8044353.7    64753.564   -7979600.2    705638.66    1.1645901    68.163464    68.163464    151.87247 
   34700    72503    299.35625   -1669.7594   -8044428.9    64695.284   -7979733.6    705867.31    1.1642129    68.166664    68.166664    151.90742 
   34800    72503    299.54752   -2444.5641   -8044486.2     64736.62   -7979749.6    706387.29    1.1633559    68.183925    68.183925    151.94236 
   34900    72503    300.23257   -659.34887   -8044391.2    64884.669   -7979506.5    706614.44    1.1629819    68.187047    68.187047    151.97731 
   35000    72503    300.74497   -1499.0608   -8044109.7    64995.405   -7979114.3    706782.09     1.162706    68.187296    68.187296    152.01225 
   35100    72503    301.89718   -1081.6708   -8044303.2    65244.416   -7979058.8    706794.87     1.162685    68.180076    68.180076     152.0472 
   35200    72503    300.76361    220.18751   -8044401.4    64999.435     -7979402    706467.23    1.1632242     68.15644     68.15644    152.08214 
   35300    72503    300.63802   -1095.7229   -8044550.8    64972.292   -7979578.6    706247.85    1.1635856    68.138029    68.138029    152.11709 
   35400    72503    299.91165    -1671.803   -8044424.5    64815.313   -7979609.2    705968.41    1.1640461    68.116724    68.116724    152.15204 
   35500    72503    300.33064   -169.59235   -8044572.8    64905.864   -7979666.9    705409.67    1.1649682    68.081945    68.081945    152.18698 
   35600    72503    298.76614   -255.72272   -8044445.4    64567.752   -7979877.6    705131.51    1.1654277    68.060707    68.060707    152.22193 
   35700    72503    298.78656   -1639.1212   -8044404.5    64572.164   -7979832.3    705092.14    1.1654928    68.050996    68.050996    152.25687 
   35800    72503    299.83247   -1764.2479   -8044145.7      64798.2   -7979347.5     705120.7    1.1654456    68.044566    68.044566    152.29182 
   35900    72503    300.68427   -1297.4822   -8044268.5    64982.289   -7979286.2    705352.72    1.1650622    68.047953    68.047953    152.32676 
   36000    72503    299.83225   -81.816848   -8044278.1    64798.153   -7979479.9    705599.63    1.1646545    68.052057    68.052057    152.36171 
   36100    72503     298.9296   -1296.6821   -8044221.5    64603.078   -7979618.4    705771.35    1.1643712    68.052533    68.052533    152.39665 
   36200    72503    299.70847   -927.47635   -8044416.8    64771.402   -7979645.3    705460.66     1.164884    68.029754    68.029754     152.4316 
   36300    72503    299.23731    873.57055   -8044174.4    64669.579   -7979504.9    704987.91    1.1656651    67.999162    67.999162    152.46654 
   36400    72503    300.54423   -235.09212   -8044220.4    64952.023   -7979268.4    705085.69    1.1655034    67.996085    67.996085    152.50149 
   36500    72503    300.53113   -2305.0262   -8044270.6    64949.192   -7979321.4    705235.24    1.1652563    67.995506    67.995506    152.53643 
   36600    72503    299.24047   -864.24874     -8044268    64670.262   -7979597.7    705353.73    1.1650605     67.99343     67.99343    152.57138 
   36700    72503    299.84572   -204.95965   -8044446.7    64801.064   -7979645.7    705442.32    1.1649142    67.989914    67.989914    152.60632 
   36800    72503    300.53798   -1732.3916   -8044399.4    64950.672   -7979448.7    705465.82    1.1648754    67.983263    67.983263    152.64127 
   36900    72503     300.6703   -1400.2905   -8044323.6    64979.268   -7979344.3    705996.77    1.1639994    68.001057    68.001057    152.67622 
   37000    72503    299.89018    32.189631   -8044448.9    64810.672   -7979638.2    706588.29    1.1630249    68.021755    68.021755    152.71116 
   37100    72503    300.11955   -945.27319   -8044707.2    64860.243     -7979847    707303.37    1.1618491     68.04838     68.04838    152.74611 
   37200    72503    298.35804   -2149.9493   -8044349.7    64479.555   -7979870.1    707376.64    1.1617288    68.044121    68.044121    152.78105 
   37300    72503    302.55663   -1091.7815     -8044689    65386.932     -7979302    706876.27    1.1625511    68.012273    68.012273      152.816 
   37400    72503    300.95586   -692.72412     -8044361    65040.982   -7979320.1    706599.25    1.1630069    67.991172    67.991172    152.85094 
   37500    72503     300.6906   -2067.1654   -8044497.6    64983.656   -7979513.9    706849.98    1.1625944    67.995461    67.995461    152.88589 
   37600    72503    299.79418   -420.17216   -8044481.5    64789.927   -7979691.6    706669.25    1.1628917       67.979       67.979    152.92083 
   37700    72503    299.72041   -869.88562   -8044758.8    64773.984   -7979984.8    706811.27     1.162658    67.978064    67.978064    152.95578 
   37800    72503    297.35692   -1021.4722   -8044718.1      64263.2   -7980454.9    706997.15    1.1623524    67.979236    67.979236    152.99072 
   37900    72503    298.88435   -1320.6164   -8044796.5    64593.299   -7980203.2    706999.56    1.1623484     67.97159     67.97159    153.02567 
   38000    72503    298.56879   -864.58299     -8044414    64525.102   -7979888.9    706587.22    1.1630267    67.944008    67.944008    153.06061 
   38100    72503    298.96022   -1547.8061   -8044215.6    64609.695   -7979605.9    706421.06    1.1633002    67.928265    67.928265    153.09556 
   38200    72503    300.46934   -2056.4273     -8044240    64935.837   -7979304.2    706941.62    1.1624436    67.945534    67.945534     153.1305 
   38300    72503    300.79228   -2022.4574   -8044274.1    65005.631   -7979268.5    707293.61    1.1618652    67.954694    67.954694    153.16545 
   38400    72503    300.30788   -1151.0874   -8044305.5    64900.945   -7979404.6    706876.39    1.1625509      67.9269      67.9269     153.2004 
   38500    72503    298.77775   -2216.0326   -8044225.2    64570.261   -7979654.9    706609.79    1.1629895    67.906345    67.906345    153.23534 
   38600    72503    299.50929   -1281.9555   -8044527.3    64728.357     -7979799    706764.32    1.1627353    67.906027    67.906027    153.27029 
   38700    72503    298.37655   -1466.1761   -8044351.4    64483.556   -7979867.9    706976.47    1.1623864    67.908477    67.908477    153.30523 
   38800    72503    300.71999   -422.73991   -8044507.8    64990.007   -7979517.8     707241.9    1.1619501    67.913484    67.913484    153.34018 
   38900    72503    301.26631   -791.31389   -8044303.8    65108.075   -7979195.7    707505.01     1.161518    67.918377    67.918377    153.37512 
   39000    72503    300.09977    -835.4336   -8044165.2    64855.968   -7979309.3    707704.59    1.1611904    67.920219    67.920219    153.41007 
   39100    72503    299.60897   -742.28903   -8044460.5    64749.899   -7979710.6    707417.61    1.1616615    67.898713    67.898713    153.44501 
   39200    72503    298.07645   -800.59145   -8044435.6    64418.699   -7980016.9    707189.63     1.162036    67.880043    67.880043    153.47996 
   39300    72503    298.79893   -1491.8214   -8044391.8    64574.839   -7979816.9    707197.29    1.1620234    67.872684    67.872684     153.5149 
   39400    72503    300.24111   -1762.3028   -8044424.1    64886.515   -7979537.6    707356.21    1.1617623    67.872585    67.872585    153.54985 
   39500    72503    299.78037   -1578.7048   -8044066.6    64786.942   -7979279.7    707589.28    1.1613797    67.876042    67.876042    153.58479 
   39600    72503    301.02045   -1652.8808     -8044260    65054.941   -7979205.1    707622.41    1.1613253     67.86991     67.86991    153.61974 
   39700    72503    298.59716   -732.46192   -8044116.5    64531.232   -7979585.3    707842.94    1.1609635    67.872766    67.872766    153.65468 
   39800    72503    299.28024   -787.45977   -8044612.5    64678.856   -7979933.6    708104.98    1.1605338     67.87761     67.87761    153.68963 
   39900    72503    298.80507    11.790271   -8044518.2    64576.164   -7979942.1    708256.59    1.1602854    67.877159    67.877159    153.72458 
   40000    72503    299.42547   -977.72015   -8044363.7    64710.242   -7979653.4    708216.12    1.1603517    67.867507    67.867507    153.75952 
   40100    72503    298.99532   -1073.4499   -8044072.1    64617.281   -7979454.8    708244.13    1.1603058    67.861138    67.861138    153.79447 
   40200    72503    299.25109   -777.55041   -8044044.6    64672.558     -7979372    708421.64    1.1600151    67.861932    67.861932    153.82941 
   40300    72503    298.91027    470.68589   -8043873.2    64598.901   -7979274.3    708485.61    1.1599104    67.857289    67.857289    153.86436 
   40400    72503    300.53934   -1205.5467   -8044221.7    64950.966   -7979270.7    708505.95    1.1598771    67.850558    67.850558     153.8993 
   40500    72503    299.40322   -1806.5223   -8044464.6    64705.435   -7979759.1    708296.58    1.1602199    67.832831    67.832831    153.93425 
   40600    72503    299.59996   -1001.0246   -8044604.7    64747.953   -7979856.7    708050.52    1.1606231    67.813351    67.813351    153.96919 
   40700    72503    299.23001    -468.8112   -8044156.4    64668.002   -7979488.4    707905.22    1.1608613    67.798699    67.798699    154.00414 
   40800    72503    300.94819   -1169.5403     -8044228    65039.324   -7979188.6    707944.43     1.160797    67.792886    67.792886    154.03908 
   40900    72503    300.99692   -944.09594   -8044239.5    65049.855   -7979189.7    707915.82     1.160844    67.783828    67.783828    154.07403 
   41000    72503    299.84687   -1835.4642   -8044231.3    64801.313     -7979430    707909.16    1.1608549    67.775823    67.775823    154.10897 
   41100    72503    298.70582   -180.06042   -8044279.2    64554.715   -7979724.5    707751.14     1.161114    67.760576    67.760576    154.14392 
   41200    72503    299.46237   -2331.4539   -8044399.7    64718.217   -7979681.5    707912.81    1.1608489    67.760634    67.760634    154.17887 
   41300    72503    301.00158   -1016.4136   -8044122.7    65050.862   -7979071.8    708056.52    1.1606133    67.759833    67.759833    154.21381 
   41400    72503    300.20941   -1017.0999   -8043858.9    64879.665   -7978979.2    707916.21    1.1608433    67.745444    67.745444    154.24876 
   41500    72503    300.61037   -848.79726   -8044261.5    64966.317   -7979295.2     708027.2    1.1606613    67.743081    67.743081     154.2837 
   41600    72503    298.52116   -403.05082   -8044039.5    64514.808   -7979524.7    708530.11    1.1598375    67.759463    67.759463    154.31865 
   41700    72503    299.69268   -7.5958126     -8044269    64767.991     -7979501    708701.02    1.1595578    67.759963    67.759963    154.35359 
   41800    72503    302.20455     -1229.03   -8044651.9    65310.842   -7979341.1    708865.44    1.1592888    67.760153    67.760153    154.38854 
   41900    72503    300.06895   -1085.1576   -8044419.6    64849.308   -7979570.3    708957.22    1.1591388    67.756871    67.756871    154.42348 
   42000    72503    298.31949   -175.14028   -8044456.1    64471.224   -7979984.9    708859.34    1.1592988    67.744529    67.744529    154.45843 
   42100    72503    299.88747    -1728.468   -8044680.2    64810.088   -7979870.1    709214.69     1.158718    67.753843    67.753843    154.49337 
   42200    72503     300.2659     829.9486   -8044453.1    64891.872   -7979561.3    709377.57    1.1584519     67.75396     67.75396    154.52832 
   42300    72503    300.73809   -1563.3554   -8044135.6     64993.92   -7979141.7    710036.68    1.1573765    67.777766    67.777766    154.56326 
   42400    72503    300.73476    257.84972   -8044126.5      64993.2   -7979133.3    710161.24    1.1571735     67.77605     67.77605    154.59821 
   42500    72503    299.85668   -271.23261   -8044037.7    64803.434   -7979234.3    710152.95    1.1571871    67.767995    67.767995    154.63315 
   42600    72503    300.44629   -1751.0563   -8044308.9    64930.857   -7979378.1    710359.06    1.1568513    67.770172    67.770172     154.6681 
   42700    72503     298.7801   -1592.9158   -8044381.4     64570.77   -7979810.7    710520.43    1.1565885    67.770214    67.770214    154.70305 
   42800    72503    298.39673   -1689.8637   -8044410.4    64487.917   -7979922.5    710563.13    1.1565191    67.764597    67.764597    154.73799 
   42900    72503    299.40905   -183.32406     -8044031    64706.694   -7979324.3    710697.17    1.1563009    67.763336    67.763336    154.77294 
   43000    72503    300.58828   -805.20691   -8044128.3    64961.543   -7979166.7    710784.14    1.1561594    67.759834    67.759834    154.80788 
   43100    72503    299.98945   -2454.7237   -8044001.6    64832.126   -7979169.5    710558.23     1.156527    67.741419    67.741419    154.84283 
   43200    72503    300.68552   -120.91685   -8044242.9    64982.558   -7979260.4    710502.84    1.1566172    67.731137    67.731137    154.87777 
   43300    72503    297.68686   -1373.0282   -8043787.8    64334.503   -7979453.3    710177.93    1.1571464     67.70801     67.70801    154.91272 
   43400    72503    299.83191   -1896.0823   -8044232.6     64798.08   -7979434.5    710238.99    1.1570469    67.703285    67.703285    154.94766 
   43500    72503    300.37393   -1904.4714   -8044206.4    64915.219   -7979291.2     710191.9    1.1571236    67.693407    67.693407    154.98261 
   43600    72503    300.23755   -409.20002     -8044003    64885.746   -7979117.3     709994.5    1.1574453     67.67637     67.67637    155.01755 
   43700    72503    300.44204   -561.74752   -8044100.7    64929.939   -7979170.8    709890.22    1.1576153    67.663773    67.663773     155.0525 
   43800    72503    299.00273   -1805.0019   -8044173.2    64618.882   -7979554.3     709963.6    1.1574957    67.659646    67.659646    155.08744 
   43900    72503    300.28552   -968.41427   -8044513.3    64896.111   -7979617.2    710214.17    1.1570873    67.663962    67.663962    155.12239 
   44000    72503    299.45066   -304.37568   -8044011.8    64715.686   -7979296.1    710329.47    1.1568995    67.661833    67.661833    155.15733 
   44100    72503    300.95166    1297.6573   -8043866.3    65040.075   -7978826.2    710434.71    1.1567281    67.659226    67.659226    155.19228 
   44200    72503    300.68981   -999.83301   -8043880.6    64983.486   -7978897.1    711077.92    1.1556818    67.682229    67.682229    155.22723 
   44300    72503    300.89504   -858.99022   -8044145.3    65027.838   -7979117.4    711675.11     1.154712    67.703023    67.703023    155.26217 
   44400    72503    299.31438   -322.09502   -8044076.3    64686.235     -7979390    712239.07    1.1537977    67.722222    67.722222    155.29712 
   44500    72503    298.92503   -1266.7824   -8043992.5     64602.09   -7979390.4    712714.55     1.153028    67.737203    67.737203    155.33206 
   44600    72503     299.2267   -436.73894   -8043948.4    64667.286   -7979281.1    712221.78    1.1538257    67.706167    67.706167    155.36701 
   44700    72503    301.17373   -245.23293     -8044011    65088.066     -7978923    712253.26    1.1537747     67.70005     67.70005    155.40195 
   44800    72503    301.86904   -1569.4068   -8043859.3    65238.334     -7978621    712355.73    1.1536087    67.697308    67.697308     155.4369 
   44900    72503    300.14058   -322.64946     -8043451    64864.789   -7978586.2     712078.6    1.1540577    67.676532    67.676532    155.47184 
   45000    72503    301.07129   -717.84483   -8044095.1    65065.929   -7979029.2    711891.87    1.1543604    67.660054    67.660054    155.50679 
   45100    72503    299.73864    332.40603   -8044156.2    64777.923   -7979378.3    711989.08    1.1542028    67.657072    67.657072    155.54173 
   45200    72503    298.21753   -1769.9253   -8043907.2     64449.19     -7979458    712240.14     1.153796    67.661399    67.661399    155.57668 
   45300    72503    299.45855   -571.52848   -8043873.2    64717.392   -7979155.8    712526.74    1.1533319    67.667412    67.667412    155.61162 
   45400    72503    300.27454   -1489.3066   -8043732.6     64893.74   -7978838.8     712580.6    1.1532447    67.662372    67.662372    155.64657 
   45500    72503     299.7571    526.81539     -8043698    64781.913     -7978916    712282.44    1.1537274    67.640622    67.640622    155.68151 
   45600    72503     299.3033   -2315.3071   -8043944.2    64683.839   -7979260.3    712546.41       1.1533    67.645563    67.645563    155.71646 
   45700    72503    298.77229   -534.19594   -8044271.3    64569.081   -7979702.3    712990.74    1.1525813     67.65906     67.65906    155.75141 
   45800    72503     298.8775   -1609.7696   -8044047.9    64591.819   -7979456.1    713384.35    1.1519454    67.670142    67.670142    155.78635 
   45900    72503    301.16397   -745.75417   -8044149.4    65085.959   -7979063.5    713266.48    1.1521357    67.656963    67.656963     155.8213 
   46000    72503    301.03244    -587.5051   -8043984.5    65057.532     -7978927    713639.95    1.1515328    67.667087    67.667087    155.85624 
   46100    72503    300.21483    -2431.376   -8043996.4    64880.836   -7979115.6    713844.15    1.1512034    67.669181    67.669181    155.89119 
   46200    72503    298.82944   -1426.1591   -8043999.8    64581.431   -7979418.4    713807.66    1.1512622    67.659869    67.659869    155.92613 
   46300    72503    299.10408   -494.40054   -8044388.3    64640.785   -7979747.6    713838.95    1.1512118    67.653771    67.653771    155.96108 
   46400    72503    298.99375   -1267.7374     -8044178    64616.941     -7979561    713764.24    1.1513323    67.642653    67.642653    155.99602 
   46500    72503    300.95977   -1560.1712     -8044095    65041.828   -7979053.2    713688.38    1.1514546    67.631483    67.631483    156.03097 
   46600    72503    300.57841   -1650.4314     -8044019    64959.411   -7979059.6    713449.27    1.1518406    67.612582    67.612582    156.06591 
   46700    72503    299.47846   -499.48542     -8044079    64721.694   -7979357.3     713388.6    1.1519385    67.602139    67.602139    156.10086 
   46800    72503    298.42747   -654.51632   -8044023.6    64494.561     -7979529    713462.83    1.1518187     67.59809     67.59809     156.1358 
   46900    72503    300.10673   -1910.1386   -8044172.8    64857.472   -7979315.3     713743.1    1.1513664    67.603801    67.603801    156.17075 
   47000    72503    300.65868   -693.52739   -8043685.4    64976.758   -7978708.6    713963.18    1.1510115    67.606659    67.606659     156.2057 
   47100    72503    300.72469   -1547.7215     -8043679    64991.024     -7978688    713845.62     1.151201    67.593533    67.593533    156.24064 
   47200    72503    299.52731   -1557.4913   -8043762.8    64732.251   -7979030.5    713286.39    1.1521036    67.559496    67.559496    156.27559 
   47300    72503    299.86543   -38.518238   -8044011.4    64805.324   -7979206.1    713140.58    1.1523391    67.545039    67.545039    156.31053 
   47400    72503     298.8761   -2072.4767   -8043853.1    64591.516   -7979261.6    713332.19    1.1520296    67.546563    67.546563    156.34548 
   47500    72503    300.16482   -2353.4213   -8044023.4    64870.027   -7979153.4    713417.22    1.1518923     67.54304     67.54304    156.38042 
   47600    72503    300.66896   -447.39642   -8043605.1    64978.979   -7978626.1     713347.1    1.1520055    67.532175    67.532175    156.41537 
   47700    72503    301.20992   -616.32025   -8043612.9    65095.889     -7978517    713691.86     1.151449    67.540948    67.540948    156.45031 
   47800    72503    298.09508      730.688   -8043329.6    64422.726   -7978906.9    713882.48    1.1511416    67.542424    67.542424    156.48526 
   47900    72503    298.86016   -1252.2017   -8043577.7    64588.071   -7978989.6    713946.86    1.1510378    67.537929    67.537929     156.5202 
   48000    72503    299.80465   -499.34749   -8043867.1     64792.19   -7979074.9    714007.12    1.1509406    67.533241    67.533241    156.55515 
   48100    72503    300.61006   -1163.2546   -8044291.7    64966.249   -7979325.5    714151.09    1.1507086    67.532513    67.532513    156.59009 
   48200    72503    299.10581   -1542.3362   -8044468.5     64641.16   -7979827.3    714083.22     1.150818     67.52177     67.52177    156.62504 
   48300    72503    299.76161   -1309.4163   -8044485.8    64782.888     -7979703    713878.96    1.1511472    67.504582    67.504582    156.65998 
   48400    72503    299.57373   -1978.1614     -8044133    64742.284   -7979390.7    713950.66    1.1510316    67.500444    67.500444    156.69493 
   48500    72503    300.67325    408.91048   -8044113.7    64979.905   -7979133.8    713896.17    1.1511195    67.490342    67.490342    156.72988 
   48600    72503    299.17939    -225.8877   -8043806.2    64657.062   -7979149.2    713917.91    1.1510844    67.483847    67.483847    156.76482 
   48700    72503    299.70208   -1076.3657   -8044259.6    64770.022   -7979489.6    714278.26    1.1505037    67.493354    67.493354    156.79977 
   48800    72503    298.19372   -895.63129   -8044190.9    64444.043   -7979746.8     714452.5    1.1502231    67.494065    67.494065    156.83471 
   48900    72503    298.86714   -1409.6605   -8044101.8     64589.58   -7979512.2    714934.25    1.1494481    67.509296    67.509296    156.86966 
   49000    72503    299.94639   -1847.8894   -8044064.6     64822.82   -7979241.7    715262.16    1.1489211    67.517256    67.517256     156.9046 
   49100    72503    298.36087   -1210.0317     -8043545    64480.167   -7979064.8    715396.87    1.1487048    67.516096    67.516096    156.93955 
   49200    72503    300.48514   -572.47816   -8043804.2    64939.252     -7978865    715489.44    1.1485562    67.512948    67.512948    156.97449 
   49300    72503     299.6606   -1128.0342   -8043679.9    64761.058   -7978918.8    715537.72    1.1484787    67.507712    67.507712    157.00944 
   49400    72503    299.75306   -3188.8731   -8044218.6     64781.04   -7979437.6    715509.81    1.1485235    67.498884    67.498884    157.04438 
   49500    72503    298.57983   -482.66409   -8044170.2    64527.487   -7979642.8    715440.27    1.1486351    67.488095    67.488095    157.07933 
   49600    72503    298.77641   -2322.8278     -8044060    64569.971     -7979490     715552.1    1.1484556    67.485864    67.485864    157.11427 
   49700    72503    300.34891   -1376.6223   -8043945.2    64909.812   -7979035.4    715633.79    1.1483245    67.482211    67.482211    157.14922 
   49800    72503    300.85347    -1850.542   -8043939.2    65018.855   -7978920.4     715444.9    1.1486277    67.465804    67.465804    157.18416 
   49900    72503    300.94801   -308.52088     -8044144    65039.287   -7979104.7    715594.36    1.1483878    67.465351    67.465351    157.21911 
   50000    72503     299.6736   -571.70401   -8043994.5    64763.867   -7979230.6    716534.14    1.1468816    67.502136    67.502136    157.25406 
   50100    72503    300.69817    16.223685   -8044101.9    64985.292   -7979116.6    717184.86     1.145841    67.525278    67.525278      157.289 
   50200    72503    301.10662   -1692.3502   -8043776.3    65073.564   -7978702.7    717437.88    1.1454369    67.529687    67.529687    157.32395 
   50300    72503    301.45115   -169.50898   -8043511.2    65148.021   -7978363.2    717398.71    1.1454994    67.520345    67.520345    157.35889 
   50400    72503    300.69635   -1449.0928   -8043738.6    64984.898   -7978753.7    717164.05    1.1458742    67.501806    67.501806    157.39384 
   50500    72503    300.38623   -2354.0598   -8043884.9    64917.876     -7978967    716863.79    1.1463542    67.480183    67.480183    157.42878 
   50600    72503    300.16563   -1095.9982     -8043995    64870.201   -7979124.8    717131.54    1.1459262    67.485295    67.485295    157.46373 
   50700    72503    298.22354   -517.51917   -8043686.7    64450.487   -7979236.2    717400.23     1.145497    67.490447    67.490447    157.49867 
   50800    72503    299.62059   -788.39586   -8043686.5    64752.411   -7978934.1    717174.06    1.1458582    67.472323    67.472323    157.53362 
   50900    72503    301.72631   -1137.3613   -8043819.5    65207.487     -7978612    716726.95     1.146573    67.443808    67.443808    157.56856 
   51000    72503    299.48205   -1972.7375   -8043620.5     64722.47     -7978898    716864.49    1.1463531      67.4428      67.4428    157.60351 
   51100    72503    298.68102   -256.58351   -8043711.3    64549.355   -7979161.9    716704.38    1.1466091    67.427793    67.427793    157.63845 
   51200    72503    299.09545   -855.55803   -8043764.3    64638.921   -7979125.3    716414.43    1.1470732    67.406682    67.406682     157.6734 
   51300    72503    300.07395   -1530.6864   -8043787.9    64850.389   -7978937.5    716264.55    1.1473132    67.392162    67.392162    157.70835 
   51400    72503    301.32452   -2118.6474     -8043860    65120.656   -7978739.4    716501.12    1.1469344    67.395824    67.395824    157.74329 
[...]
  387600    72503    301.30887    107.97618     -8047033    65117.274   -7981915.7    1237037.4   0.66431283    67.041525    67.041525    275.22954 
  387700    72503    299.74516   -845.81288   -8046991.9    64779.332   -7982212.6    1236706.9   0.66449037    67.028313    67.028313    275.26449 
  387800    72503    299.50798    673.54554   -8047249.8    64728.075   -7982521.7    1236674.7   0.66450764    67.023188    67.023188    275.29943 
  387900    72503      298.466     321.9702   -8046912.8    64502.887     -7982410    1237168.2   0.66424258    67.032305    67.032305    275.33438 
  388000    72503    300.01668    201.74765   -8047037.1    64838.011   -7982199.1    1237360.5   0.66413933    67.033262    67.033262    275.36932 
  388100    72503    299.11213   -748.50817     -8046764    64642.526   -7982121.5    1237225.1   0.66421204     67.02534     67.02534    275.40427 
  388200    72503    299.45834   -690.25033   -8046921.4    64717.347   -7982204.1    1237623.9   0.66399798     67.03189     67.03189    275.43921 
  388300    72503    298.00852   -337.92606   -8047052.6    64404.019   -7982648.6    1238045.4   0.66377193    67.039051    67.039051    275.47416 
  388400    72503    299.54315   -10.126454   -8047426.3    64735.676   -7982690.6    1238119.2   0.66373237    67.036797    67.036797    275.50911 
  388500    72503    299.65884    678.60092   -8047085.2    64760.678   -7982324.5    1237797.7    0.6639048     67.02384     67.02384    275.54405 
  388600    72503    301.49096    301.95856   -8047188.1    65156.625   -7982031.4    1237993.6   0.66379971    67.024895    67.024895      275.579 
  388700    72503    300.90118   -1146.9616   -8047204.8    65029.166   -7982175.7    1238548.3   0.66350245    67.035658    67.035658    275.61394 
  388800    72503    299.86163    158.65802   -8047117.3    64804.504   -7982312.8    1238123.3   0.66373019    67.019907    67.019907    275.64889 
  388900    72503    299.33605    -490.2044   -8046942.7    64690.917   -7982251.8      1238116    0.6637341    67.015462    67.015462    275.68383 
  389000    72503    301.05748    387.88484   -8046869.4    65062.944   -7981806.5    1239097.6   0.66320826    67.037775    67.037775    275.71878 
  389100    72503    301.10061    1013.2438   -8046564.5    65072.266   -7981492.2    1240013.6   0.66271839    67.058298    67.058298    275.75372 
  389200    72503    300.09565    123.17998   -8046652.2    64855.079   -7981797.2    1241270.1   0.66204751    67.088015    67.088015    275.78867 
  389300    72503     301.3254    102.28257   -8047129.8    65120.846   -7982008.9    1241985.5   0.66166618    67.103093    67.103093    275.82361 
  389400    72503    300.12815    465.27751   -8047129.4    64862.102   -7982267.3    1241877.3   0.66172382     67.09592     67.09592    275.85856 
  389500    72503    299.59004   -344.81765   -8047053.6    64745.808   -7982307.8    1242075.8   0.66161808    67.097032    67.097032     275.8935 
  389600    72503    301.45345    324.51843   -8047377.4    65148.518   -7982228.9    1243105.5   0.66107006    67.120587    67.120587    275.92845 
  389700    72503    299.58131    525.78852   -8047097.9    64743.923     -7982354    1244332.9   0.66041796    67.149464    67.149464    275.96339 
  389800    72503     298.5795   -451.40744   -8047351.4    64527.416   -7982823.9    1244713.7   0.66021592    67.155486    67.155486    275.99834 
  389900    72503     299.5624   -873.38716   -8047494.7    64739.836   -7982754.9      1243839   0.66068019    67.127637    67.127637    276.03329 
  390000    72503    299.40869    132.45777   -8047043.5    64706.617   -7982336.9      1242640   0.66131766    67.091029    67.091029    276.06823 
  390100    72503    299.00004   -291.71118   -8046701.6      64618.3   -7982083.3    1242191.4   0.66155653    67.074671    67.074671    276.10318 
  390200    72503    301.48538    71.417937   -8047092.6     65155.42   -7981937.2    1242725.8   0.66127201    67.084854    67.084854    276.13812 
  390300    72503    300.14437    269.96796   -8047001.6    64865.608     -7982136    1243298.6   0.66096735    67.096067    67.096067    276.17307 
  390400    72503    299.92607    12.939101   -8047168.9    64818.431   -7982350.5      1243382   0.66092304    67.094071    67.094071    276.20801 
  390500    72503    298.31485    36.272379   -8046940.4    64470.221   -7982470.2    1243581.4   0.66081708    67.095206    67.095206    276.24296 
  390600    72503    299.92461     381.9443   -8047179.1    64818.113   -7982360.9      1243778    0.6607126    67.096267    67.096267     276.2779 
  390700    72503     299.3922   -768.80444   -8046809.2    64703.051   -7982106.2    1244089.5   0.66054718    67.100425    67.100425    276.31285 
  390800    72503    300.58082    9.8547117   -8046892.9     64959.93     -7981933    1243651.6   0.66077976    67.084373    67.084373    276.34779 
  390900    72503    300.04048    246.62833   -8046908.2    64843.155     -7982065    1243554.6   0.66083132    67.077515    67.077515    276.38274 
  391000    72503    298.91158    254.15697   -8047076.6    64599.184   -7982477.5    1243557.2   0.66082989    67.073347    67.073347    276.41768 
  391100    72503    298.97813   -125.47204   -8047005.8    64613.567   -7982392.3    1243850.7   0.66067397    67.077021    67.077021    276.45263 
  391200    72503    301.52231   -283.48352   -8047310.9    65163.401   -7982147.5    1244017.7   0.66058531    67.077283    67.077283    276.48757 
  391300    72503    299.80804     188.3611   -8046991.8    64792.922   -7982198.9    1243962.3    0.6606147    67.071553    67.071553    276.52252 
  391400    72503     298.5884    158.59208   -8046766.7    64529.339   -7982237.4    1244473.2   0.66034352    67.081085    67.081085    276.55747 
  391500    72503    299.29156    68.724958   -8046988.5    64681.304   -7982307.2    1244705.4   0.66022031    67.083105    67.083105    276.59241 
  391600    72503    297.98708   -90.915763   -8047131.7    64399.385   -7982732.3    1244555.8    0.6602997    67.074835    67.074835    276.62736 
  391700    72503     297.7899   -434.31893   -8047241.8    64356.772     -7982885    1244754.1    0.6601945    67.075943    67.075943     276.6623 
  391800    72503    299.57611    142.48685   -8047243.2    64742.798   -7982500.4    1245086.1   0.66001845    67.080651    67.080651    276.69725 
  391900    72503    299.58165    89.561552   -8047024.1    64743.995   -7982280.1    1245918.4   0.65957754    67.098832    67.098832    276.73219 
  392000    72503    300.15964    222.05548   -8047015.9    64868.909     -7982147      1245820   0.65962962    67.091947    67.091947    276.76714 
  392100    72503    300.51225   -607.61642   -8046888.5    64945.112   -7981943.3    1245554.1   0.65977044    67.080552    67.080552    276.80208 
  392200    72503     300.6441    221.58504   -8046813.3    64973.606   -7981839.7    1245296.7   0.65990684    67.069385    67.069385    276.83703 
  392300    72503    299.90736    488.66885     -8047076    64814.387   -7982261.6      1244445   0.66035849    67.042214    67.042214    276.87197 
  392400    72503    299.70505   -128.72576   -8047314.1    64770.664   -7982543.5    1244180.6   0.66049881    67.030863    67.030863    276.90692 
  392500    72503    299.52642    -338.5404   -8047168.7     64732.06   -7982436.7    1244214.6   0.66048076    67.027549    67.027549    276.94186 
  392600    72503    300.27309    793.55811   -8046957.7    64893.426   -7982064.3      1244359   0.66040409    67.027211    67.027211    276.97681 
  392700    72503    300.89773    232.19256   -8046956.2    65028.421   -7981927.8    1244828.4   0.66015506    67.035623    67.035623    277.01176 
  392800    72503     299.6838    87.940452   -8046877.7    64766.071   -7982111.6    1245651.3   0.65971897    67.053547    67.053547     277.0467 
  392900    72503     298.7617   -771.77867   -8047315.3    64566.791   -7982748.5      1246019    0.6595243    67.059213    67.059213    277.08165 
  393000    72503    299.31864   -455.36604   -8047329.4    64687.155   -7982642.2    1246503.1   0.65926815     67.06801     67.06801    277.11659 
  393100    72503    299.53962    237.01249   -8047024.2    64734.912   -7982289.3    1246655.3   0.65918767    67.067875    67.067875    277.15154 
  393200    72503    299.97609   -544.52526   -8046829.6    64829.239   -7982000.4    1246190.8   0.65943337    67.051152    67.051152    277.18648 
  393300    72503    302.36325   -433.46445   -8047214.9    65345.141   -7981869.8    1246247.7   0.65940326    67.048457    67.048457    277.22143 
  393400    72503    300.15077   -345.50495   -8047087.3    64866.992   -7982220.4    1246302.1    0.6593745    67.045693    67.045693    277.25637 
  393500    72503    300.16605    22.904958   -8047265.7    64870.292   -7982395.4    1246475.8   0.65928261    67.046141    67.046141    277.29132 
  393600    72503    299.16543    538.49312   -8047057.7    64654.045   -7982403.6    1246736.1   0.65914494    67.048917    67.048917    277.32626 
  393700    72503    300.27851   -74.293766     -8047162    64894.598   -7982267.4    1247294.5   0.65884987    67.059705    67.059705    277.36121 
  393800    72503    300.16537   -82.609778   -8047113.8    64870.145   -7982243.6    1247818.4   0.65857323    67.069563    67.069563    277.39615 
  393900    72503    299.27427   -39.057767   -8047208.7    64677.567   -7982531.1    1248290.9   0.65832396    67.078034    67.078034     277.4311 
  394000    72503    298.48949    5.6181553   -8047331.8    64507.963   -7982823.8    1248214.7   0.65836415    67.071763    67.071763    277.46604 
  394100    72503    299.45378    486.21441     -8047259    64716.362   -7982542.7      1247407   0.65879041    67.045838    67.045838    277.50099 
  394200    72503    299.58538   -139.64865   -8046880.4    64744.802   -7982135.6    1247648.8   0.65866275    67.048114    67.048114    277.53594 
  394300    72503    300.59706   -511.19075   -8046992.6     64963.44   -7982029.2    1248263.3   0.65833849    67.060403    67.060403    277.57088 
  394400    72503    300.39192   -535.30191   -8047153.7    64919.107   -7982234.6    1248403.8   0.65826441    67.059955    67.059955    277.60583 
  394500    72503    299.83739   -493.06114   -8047376.1    64799.264   -7982576.9    1248193.7   0.65837521    67.050091    67.050091    277.64077 
  394600    72503     299.1095   -541.59073   -8047144.8    64641.956   -7982502.8      1248449   0.65824058    67.052728    67.052728    277.67572 
  394700    72503    300.02587    158.37019   -8047156.1    64839.998   -7982316.1      1248657   0.65813091    67.054096    67.054096    277.71066 
  394800    72503    299.85269    138.80471   -8047088.3     64802.57   -7982285.7    1249294.2   0.65779524    67.066983    67.066983    277.74561 
  394900    72503    300.27057   -173.94834   -8047132.5    64892.881   -7982239.7      1249925   0.65746328    67.079692    67.079692    277.78055 
  395000    72503     299.7219    111.94986   -8046991.9    64774.306   -7982217.5    1250490.1   0.65716617    67.090634    67.090634     277.8155 
  395100    72503    301.71613    373.49326   -8047245.5    65205.288   -7982040.2      1250317   0.65725717    67.081771    67.081771    277.85044 
  395200    72503     298.8701    491.53118   -8046897.2    64590.218     -7982307    1250228.7   0.65730356    67.075185    67.075185    277.88539 
  395300    72503    298.58214    22.373185   -8047055.6    64527.986   -7982527.6    1250502.7   0.65715957    67.078316    67.078316    277.92033 
  395400    72503     300.0486   -818.25984   -8047095.1    64844.911   -7982250.2    1250725.3   0.65704262    67.080068    67.080068    277.95528 
  395500    72503    300.59071   -697.27778   -8046931.6    64962.067   -7981969.5    1250427.9   0.65719885    67.067879    67.067879    277.99022 
  395600    72503    300.35491    238.34074   -8046742.2    64911.108     -7981831    1250031.9   0.65740704    67.053044    67.053044    278.02517 
  395700    72503    302.35678   -94.641403   -8046841.8    65343.743   -7981498.1    1250202.2   0.65731753    67.053395    67.053395    278.06012 
  395800    72503    301.94645   -53.547241     -8046933    65255.063   -7981677.9    1250948.2   0.65692554    67.069184    67.069184    278.09506 
  395900    72503    299.97971     225.2116   -8047042.5    64830.023   -7982212.5      1251573   0.65659756    67.081718    67.081718    278.13001 
  396000    72503    299.57303   -12.623345   -8047143.5    64742.132   -7982401.3    1251516.8   0.65662708    67.075996    67.075996    278.16495 
  396100    72503    298.68082   -68.854827   -8046900.7    64549.313   -7982351.4    1251338.4   0.65672068    67.067003    67.067003     278.1999 
  396200    72503     301.2437    336.33067   -8047210.5    65103.189   -7982107.3    1251297.7   0.65674203    67.061701    67.061701    278.23484 
  396300    72503    301.24609   -905.08939   -8047130.1    65103.706   -7982026.4    1251558.6   0.65660515    67.064479    67.064479    278.26979 
  396400    72503    300.36244   -124.54919   -8047169.2    64912.736   -7982256.4      1251226   0.65677968    67.051358    67.051358    278.30473 
  396500    72503    298.42954    -1287.242   -8047113.9    64495.009   -7982618.9    1251442.5   0.65666607    67.052949    67.052949    278.33968 
  396600    72503    299.26742    231.89246   -8047194.8    64676.086   -7982518.7    1250021.4   0.65741257    67.010662    67.010662    278.37462 
  396700    72503    299.64516    -113.1495   -8046865.4    64757.721   -7982107.7    1249756.8   0.65755177    66.999363    66.999363    278.40957 
  396800    72503    299.47495   -181.21257   -8046741.7    64720.937   -7982020.7    1250393.3   0.65721707    67.012216    67.012216    278.44451 
  396900    72503    300.71903   -328.07829   -8047062.9    64989.799   -7982073.1    1251376.9   0.65670045    67.034363    67.034363    278.47946 
  397000    72503    299.39443   -59.287881   -8046963.9    64703.535   -7982260.3    1252183.5   0.65627747    67.051755    67.051755    278.51441 
  397100    72503    298.70827   -442.88391   -8047175.8    64555.244   -7982620.6    1253099.8   0.65579758    67.072076    67.072076    278.54935 
  397200    72503    298.63138    67.732591     -8047365    64538.629   -7982826.4    1253725.5   0.65547027    67.084613    67.084613     278.5843 
  397300    72503     299.1055    315.88786     -8047081    64641.093   -7982439.9    1254402.9    0.6551163    67.098525    67.098525    278.61924 
  397400    72503    300.84169   -426.33474   -8047098.4    65016.308   -7982082.1    1255012.3   0.65479819    67.110614    67.110614    278.65419 
  397500    72503    300.61078   -475.99382   -8047093.4    64966.405     -7982127    1255214.2   0.65469286    67.111804    67.111804    278.68913 
  397600    72503    300.07147   -325.34876   -8047182.2    64849.853   -7982332.3    1255096.7   0.65475418    67.104454    67.104454    278.72408 
  397700    72503     299.0857    492.61741   -8047079.2    64636.813   -7982442.4    1255456.9    0.6545663    67.109877    67.109877    278.75902 
  397800    72503    299.72651   -93.486606   -8046752.3    64775.301     -7981977    1255675.8    0.6544522     67.11152     67.11152    278.79397 
  397900    72503    301.14555    364.10775     -8046895    65081.977   -7981813.1    1255143.6    0.6547297    67.093092    67.093092    278.82891 
  398000    72503    300.77565    532.42271   -8047104.1    65002.037   -7982102.1    1254630.7   0.65499735    67.075179    67.075179    278.86386 
  398100    72503    299.32023   -50.194602   -8047061.6    64687.498   -7982374.1    1254574.9   0.65502651    67.069484    67.069484     278.8988 
  398200    72503    299.13562    -712.4725   -8047101.7    64647.602   -7982454.1    1254157.4   0.65524454    67.054124    67.054124    278.93375 
  398300    72503    299.15095    975.93955     -8047068    64650.915   -7982417.1    1254258.3   0.65519185     67.05262     67.05262    278.96869 
  398400    72503    301.38426   -125.90812   -8047040.6    65133.565     -7981907    1255019.3   0.65479453    67.068759    67.068759    279.00364 
  398500    72503    300.31391    763.24524   -8046640.1    64902.247   -7981737.9    1255737.6   0.65441999    67.083748    67.083748    279.03859 
  398600    72503    301.14967    452.09195   -8047016.3    65082.869   -7981933.4    1256420.7   0.65406419    67.097791    67.097791    279.07353 
  398700    72503    299.09842    563.86295   -8046848.3    64639.562   -7982208.7      1256414   0.65406771     67.09341     67.09341    279.10848 
  398800    72503    299.17564    134.14642     -8046988     64656.25   -7982331.8    1256809.2   0.65386201    67.099762    67.099762    279.14342 
  398900    72503    300.49996   -504.32381   -8047196.3    64942.457   -7982253.8    1257642.2   0.65342893    67.117793    67.117793    279.17837 
  399000    72503    299.89207   -772.46566   -8047234.9    64811.081   -7982423.8      1258279   0.65309824    67.130582    67.130582    279.21331 
  399100    72503    297.28849   -611.48557   -8047185.1     64248.41   -7982936.7    1258648.5   0.65290653    67.136236    67.136236    279.24826 
  399200    72503    299.05436    710.34867   -8047264.9    64630.041   -7982634.9    1258390.6   0.65304034    67.125158    67.125158     279.2832 
  399300    72503    299.46949   -560.08441   -8047058.2    64719.755   -7982338.5    1258859.3   0.65279719    67.133457    67.133457    279.31815 
  399400    72503     301.0678   -467.07544   -8047142.1    65065.175     -7982077    1259255.3    0.6525919    67.139816    67.139816    279.35309 
  399500    72503    300.35466    206.84557   -8046805.4    64911.054   -7981894.3    1259408.6   0.65251244    67.139705    67.139705    279.38804 
  399600    72503    300.60379    359.08653   -8046950.2    64964.896   -7981985.3    1258766.5   0.65284529     67.11839     67.11839    279.42298 
  399700    72503     298.3833   -170.36902   -8047072.1    64485.015   -7982587.1    1257906.1   0.65329182    67.091253    67.091253    279.45793 
  399800    72503     299.2336    46.822919   -8047222.7    64668.778   -7982553.9    1257610.6   0.65344537    67.079176    67.079176    279.49287 
  399900    72503    299.71329    301.34579   -8047142.6    64772.444   -7982370.2    1257649.2   0.65342532    67.076012    67.076012    279.52782 
  400000    72503    300.47361    53.944844   -8047009.9    64936.762   -7982073.1    1257003.3   0.65376105    67.054595    67.054595    279.56277 
Loop time of 211312 on 56 procs for 400000 steps with 72503 atoms

Performance: 0.041 ns/day, 586.978 hours/ns, 1.893 timesteps/s
94.4% CPU use with 56 MPI tasks x no OpenMP threads

MPI task timing breakdown:
Section |  min time  |  avg time  |  max time  |%varavg| %total
---------------------------------------------------------------
Pair    | 34750      | 89950      | 1.1519e+05 |8493.5 | 42.57
Neigh   | 2120.4     | 6448.9     | 9719.7     |3395.2 |  3.05
Comm    | 3266       | 22368      | 51682      |10842.1 | 10.59
Output  | 10.657     | 45.944     | 46.609     |  70.2 |  0.02
Modify  | 81733      | 92489      | 1.2944e+05 |4576.0 | 43.77
Other   |            | 11.13      |            |       |  0.01

Nlocal:    1294.7 ave 2521 max 0 min
Histogram: 16 2 5 1 3 3 2 0 1 23
Nghost:    9565.34 ave 17545 max 0 min
Histogram: 16 0 0 8 0 8 0 0 0 24
Neighs:    1.14954e+06 ave 2.38474e+06 max 0 min
Histogram: 16 4 4 3 3 2 0 0 7 17

Total # of neighbors = 64374200
Ave neighs/atom = 887.883
Neighbor list builds = 40000
Dangerous builds not checked
write_restart restart.after_deform
unfix 1
unfix 2
unfix 3
unfix std
unfix bd

Please see the log.cite file for references relevant to this simulation

Total wall time: 58:41:53
