LAMMPS (2 Aug 2019)
#lammps code to run fracture simulations on PNC with four cnt
# note that volume fraction for four cnt is slightly higher
#functionalized 10 % with -OH group
#cnt not fixed during nvt equilibration in materials studio

units		real
atom_style 	charge
boundary 	p p p
read_data       four_cnt_funct.data
  orthogonal box = (-1.89883 -0.344199 2.38161) to (68.1012 69.6558 142.382)
  2 by 4 by 7 MPI processor grid
  reading atoms ...
  72897 atoms
  read_data CPU = 0.224566 secs

pair_style	reax/c control_file lgvdw yes
pair_coeff	* * ffield.reax.lg C C H O H C C C O O C C
Reading potential file ffield.reax.lg with DATE: 2012-01-06

neighbor	4 bin
neigh_modify	every 10 delay 0 check no

thermo 100
thermo_style custom step atoms temp press pe ke etotal vol density lx ly lz      #output variables

fix std all qeq/reax 1 0.0 10.0 1e-6 reax/c
min_style	 cg							#conjugate gradient minimization
minimize	 1.0e-6 1.0e-8 10000 100000
WARNING: Using 'neigh_modify every 1 delay 0 check yes' setting during minimization (../min.cpp:168)
Neighbor list info ...
  update every 1 steps, delay 0 steps, check yes
  max neighbors/atom: 2000, page size: 100000
  master list distance cutoff = 14
  ghost atom cutoff = 14
  binsize = 7, bins = 10 10 20
  2 neighbor lists, perpetual/occasional/extra = 2 0 0
  (1) pair reax/c, perpetual
      attributes: half, newton off, ghost
      pair build: half/bin/newtoff/ghost
      stencil: half/ghost/bin/3d/newtoff
      bin: standard
  (2) fix qeq/reax, perpetual, copy from (1)
      attributes: half, newton off, ghost
      pair build: copy
      stencil: none
      bin: none
Per MPI rank memory allocation (min/avg/max) = 319.7 | 327.1 | 333.6 Mbytes
Step Atoms Temp Press PotEng KinEng TotEng Volume Density Lx Ly Lz 
       0    72897            0    305077.84   -7735023.3            0   -7735023.3       686000     1.204659           70           70          140 
      20    72897            0    12420.027   -8097531.4            0   -8097531.4       686000     1.204659           70           70          140 
Loop time of 30.0532 on 56 procs for 20 steps with 72897 atoms

93.6% CPU use with 56 MPI tasks x no OpenMP threads

Minimization stats:
  Stopping criterion = energy tolerance
  Energy initial, next-to-last, final = 
        -7735023.32478     -8097524.93079     -8097531.42454
  Force two-norm initial, final = 64480.7 10191.8
  Force max component initial, final = 861.777 238.892
  Final line search alpha, max atom move = 0.00014228 0.0339896
  Iterations, force evaluations = 20 36

MPI task timing breakdown:
Section |  min time  |  avg time  |  max time  |%varavg| %total
---------------------------------------------------------------
Pair    | 9.2619     | 9.6227     | 9.88       |   5.2 | 32.02
Neigh   | 0          | 0          | 0          |   0.0 |  0.00
Comm    | 0.37249    | 0.63831    | 1.0453     |  21.3 |  2.12
Output  | 0          | 0          | 0          |   0.0 |  0.00
Modify  | 19.689     | 19.697     | 19.704     |   0.1 | 65.54
Other   |            | 0.09503    |            |       |  0.32

Nlocal:    1301.73 ave 1368 max 1224 min
Histogram: 3 2 3 4 12 12 7 3 3 7
Nghost:    13326.2 ave 13555 max 13115 min
Histogram: 4 5 7 6 5 10 6 6 5 2
Neighs:    1.25109e+06 ave 1.3406e+06 max 1.14091e+06 min
Histogram: 2 4 3 3 9 11 10 4 2 8

Total # of neighbors = 70060800
Ave neighs/atom = 961.093
Neighbor list builds = 0
Dangerous builds not checked


#set of equilibrations to reduce the energy of the system

reset_timestep 0
timestep 0.25
#fix nvt_equi all nvt temp 300.0 300.0 25.0
fix npt_equi all npt temp 300.0 300.0 25.0 iso 1.0 1.0 250.0
dump npt_dump all custom 500 dump.npt id type x y z
run 200000
Per MPI rank memory allocation (min/avg/max) = 319.3 | 326.7 | 333.4 Mbytes
Step Atoms Temp Press PotEng KinEng TotEng Volume Density Lx Ly Lz 
       0    72897            0    12419.998   -8097531.4            0   -8097531.4       686000     1.204659           70           70          140 
     100    72897    101.73844   -4974.0833   -8117962.1    22106.657   -8095855.5    689763.73    1.1980857    70.127785    70.127785    140.25557 
     200    72897    123.12639    221.29032   -8118706.6    26754.026   -8091952.6    686424.44    1.2039141    70.014434    70.014434    140.02887 
     300    72897    137.03724   -960.58575   -8116907.5    29776.703   -8087130.8    686592.81    1.2036189    70.020158    70.020158    140.04032 
     400    72897    150.81728   -3761.5563   -8114748.4    32770.956   -8081977.4    691808.67    1.1945443    70.197019    70.197019    140.39404 
     500    72897    177.13914   -553.13071   -8114342.4     38490.41     -8075852    695287.01    1.1885683     70.31447     70.31447    140.62894 
     600    72897    195.95048    275.31231   -8111781.1    42577.908   -8069203.2    695374.39    1.1884189    70.317415    70.317415    140.63483 
     700    72897    203.70931    2972.6465   -8106488.8    44263.819     -8062225     698064.6     1.183839    70.407978    70.407978    140.81596 
     800    72897    228.43601    3743.9163     -8104663    49636.661   -8055026.3    703237.84    1.1751303    70.581477    70.581477    141.16295 
     900    72897    243.31545    -1848.723   -8100514.9    52869.801   -8047645.1    707227.82    1.1685005    70.714712    70.714712    141.42942 
    1000    72897    261.14986    1292.7694   -8097163.3    56745.027   -8040418.3    709317.95    1.1650573    70.784307    70.784307    141.56861 
    1100    72897     274.4427   -2198.9589   -8093213.5    59633.415   -8033580.1    711392.27    1.1616602     70.85324     70.85324    141.70648 
    1200    72897    291.08953   -68.125796   -8090815.3     63250.59   -8027564.7    714103.87    1.1572491    70.943149    70.943149     141.8863 
    1300    72897    298.70602   -127.76175   -8087625.9    64905.571   -8022720.3    715012.55    1.1557784    70.973228    70.973228    141.94646 
    1400    72897    302.11139    131.27315   -8084964.6     65645.52   -8019319.1    715802.25    1.1545033    70.999347    70.999347    141.99869 
    1500    72897    303.21585    1317.5637   -8083202.4    65885.508   -8017316.9    717779.84    1.1513225    71.064672    71.064672    142.12934 
    1600    72897    303.14125   -806.07459   -8082480.4    65869.298   -8016611.1    720218.25    1.1474245    71.145053    71.145053    142.29011 
    1700    72897     301.0154    396.49839   -8082751.3    65407.374     -8017344    720456.86    1.1470445    71.152909    71.152909    142.30582 
    1800    72897    297.93316    447.13235   -8082991.8    64737.637   -8018254.2    720658.75    1.1467232    71.159555    71.159555    142.31911 
    1900    72897    298.17664   -1604.4842   -8083327.8    64790.542   -8018537.2    720610.47       1.1468    71.157966    71.157966    142.31593 
    2000    72897    298.27613     841.6154   -8082930.9     64812.16   -8018118.7    720721.43    1.1466234    71.161618    71.161618    142.32324 
    2100    72897    303.50144   -968.60629   -8083318.9    65947.564   -8017371.4    720322.31    1.1472588    71.148479    71.148479    142.29696 
    2200    72897    301.13429    1645.1973   -8083414.9    65433.208   -8017981.6    719802.24    1.1480877    71.131352    71.131352     142.2627 
    2300    72897    299.79786   -1386.1854   -8084228.7    65142.817   -8019085.9    720151.61    1.1475307    71.142859    71.142859    142.28572 
    2400    72897    298.55745    343.07724   -8084771.3    64873.289   -8019898.1    720559.42    1.1468812    71.156285    71.156285    142.31257 
    2500    72897    299.21253    2545.5826   -8085042.9    65015.629   -8020027.3    721009.89    1.1461647    71.171111    71.171111    142.34222 
    2600    72897    300.46526   -1030.0773   -8085129.9    65287.835   -8019842.1    723195.09    1.1427014    71.242939    71.242939    142.48588 
    2700    72897     299.4859    1208.9302   -8085063.8     65075.03   -8019988.7    725887.87    1.1384624    71.331252    71.331252     142.6625 
    2800    72897    301.16927   -78.138725   -8085734.3    65440.809   -8020293.5     728297.8    1.1346953    71.410104    71.410104    142.82021 
    2900    72897    298.92921    1244.3471   -8085549.8    64954.068   -8020595.7    731337.78    1.1299786    71.509324    71.509324    143.01865 
    3000    72897    299.60353    1067.5508   -8085548.1     65100.59   -8020447.5    734779.12    1.1246864    71.621312    71.621312    143.24262 
    3100    72897    300.49391   -122.87131   -8085462.8    65294.061   -8020168.8    737799.49    1.1200822    71.719313    71.719313    143.43863 
    3200    72897    299.15658    1073.7428     -8085061    65003.472   -8020057.5    741063.04    1.1151495    71.824904    71.824904    143.64981 
    3300    72897    300.98761   -408.47809   -8085175.4    65401.336   -8019774.1    744222.54    1.1104153    71.926833    71.926833    143.85367 
    3400    72897    299.75261     460.6469   -8084733.9    65132.984   -8019600.9    747362.64    1.1057498    72.027852    72.027852     144.0557 
    3500    72897    299.46392    262.14968   -8084511.4    65070.255   -8019441.1    750633.83     1.100931    72.132787    72.132787    144.26557 
    3600    72897    300.00825    241.58988   -8084447.2    65188.532   -8019258.7    753795.92    1.0963127    72.233933    72.233933    144.46787 
    3700    72897    300.48044    2577.7145   -8084244.1    65291.134   -8018952.9    756644.87    1.0921849    72.324821    72.324821    144.64964 
    3800    72897    300.71626    444.90873   -8083965.7    65342.374   -8018623.3    759845.37    1.0875845    72.426652    72.426652     144.8533 
    3900    72897    299.45846    676.68703   -8083455.4    65069.068   -8018386.3    763133.99    1.0828978    72.530989    72.530989    145.06198 
    4000    72897    299.74168    82.466725   -8083019.6    65130.608     -8017889    766679.09    1.0778905    72.643129    72.643129    145.28626 
    4100    72897    301.82596    964.92457   -8083072.7    65583.499   -8017489.2    770165.57    1.0730109    72.753077    72.753077    145.50615 
    4200    72897    299.40926     945.8578   -8082523.9    65058.378   -8017465.5     773557.7    1.0683057    72.859732    72.859732    145.71946 
    4300    72897    299.18424    153.34134   -8082281.9    65009.483   -8017272.5    776669.68    1.0640252    72.957305    72.957305    145.91461 
    4400    72897     301.9621    574.53554   -8082582.2    65613.083   -8016969.1     779501.7    1.0601594    73.045874    73.045874    146.09175 
    4500    72897    299.01748     565.0308   -8082058.2    64973.249   -8017084.9    781995.29    1.0567788    73.123681    73.123681    146.24736 
    4600    72897    299.49458    483.39367   -8082151.8    65076.916   -8017074.9       784589    1.0532853    73.204437    73.204437    146.40887 
    4700    72897    300.59009     314.6092   -8082377.5    65314.959   -8017062.5     786969.5    1.0500993    73.278398    73.278398     146.5568 
    4800    72897    299.63859    175.86841   -8082431.3    65108.209   -8017323.1    788514.47    1.0480417     73.32632     73.32632    146.65264 
    4900    72897    298.87425    1216.5158   -8082590.6    64942.126   -8017648.5    789486.94    1.0467508    73.356452    73.356452     146.7129 
    5000    72897    299.36799   -694.62215   -8082730.9    65049.411   -8017681.5     789676.2    1.0464999    73.362313    73.362313    146.72463 
    5100    72897    302.06309   -677.07774   -8083125.5    65635.026   -8017490.4     789667.6    1.0465113    73.362047    73.362047    146.72409 
    5200    72897    299.37466   -54.189108   -8082784.8    65050.859     -8017734    789162.66    1.0471809    73.346407    73.346407    146.69281 
    5300    72897    299.21752     455.1372   -8082884.4    65016.715   -8017867.7     788374.6    1.0482277    73.321984    73.321984    146.64397 
    5400    72897    300.37873    862.48502   -8083054.1    65269.032   -8017785.1     787375.6    1.0495576    73.291001    73.291001      146.582 
    5500    72897    301.36039   -601.02605   -8083344.4    65482.336     -8017862    786697.39    1.0504625    73.269951    73.269951     146.5399 
    5600    72897    299.55763    374.99922   -8083312.9    65090.616   -8018222.2     786119.6    1.0512345     73.25201     73.25201    146.50402 
    5700    72897    297.82209   -153.63825     -8082956    64713.504   -8018242.5    785790.65    1.0516746    73.241791    73.241791    146.48358 
    5800    72897    301.05207    874.00297   -8083121.1    65415.343   -8017705.7    785346.29    1.0522697    73.227982    73.227982    146.45596 
    5900    72897    301.91318   -44.039842   -8083036.6    65602.451   -8017434.2    784146.59    1.0538796    73.190675    73.190675    146.38135 
    6000    72897    300.81784   -1452.3857   -8083179.6    65364.446   -8017815.2    783026.38    1.0553873    73.155806    73.155806    146.31161 
    6100    72897    298.40887    128.44853   -8083245.9    64841.004   -8018404.9    781336.48    1.0576699    73.103141    73.103141    146.20628 
    6200    72897    300.28198    553.50973   -8083835.1     65248.01   -8018587.1    780058.16    1.0594032    73.063252    73.063252     146.1265 
    6300    72897    299.19075   -257.17613   -8083473.2    65010.897   -8018462.3    778870.61    1.0610184    73.026156    73.026156    146.05231 
    6400    72897    299.36807    798.63649   -8083068.3    65049.426   -8018018.9     777017.7    1.0635486    72.968201    72.968201     145.9364 
    6500    72897    301.89627   -1446.0212     -8083207    65598.778   -8017608.2    775656.01    1.0654157    72.925552    72.925552     145.8511 
    6600    72897    302.75307   -468.04762   -8083476.2    65784.952   -8017691.2    774479.84    1.0670337    72.888673    72.888673    145.77735 
    6700    72897    300.61701    377.40085   -8083856.3    65320.809   -8018535.5    773515.73    1.0683636    72.858415    72.858415    145.71683 
    6800    72897    297.70814     1130.804   -8084233.8    64688.743   -8019545.1    772448.88    1.0698392    72.824903    72.824903    145.64981 
    6900    72897    298.48948   -862.47522   -8084651.3    64858.519   -8019792.8    771062.06    1.0717634    72.781295    72.781295    145.56259 
    7000    72897    300.08748    609.46903   -8084389.4    65205.746   -8019183.6    769534.27    1.0738912    72.733193    72.733193    145.46639 
    7100    72897    301.06647    234.20024   -8083963.9    65418.472   -8018545.4    769318.64    1.0741922    72.726399    72.726399     145.4528 
    7200    72897    300.92204   -114.67284   -8083904.1    65387.089     -8018517    769236.41     1.074307    72.723808    72.723808    145.44762 
    7300    72897    299.93073   -85.651951   -8083988.9    65171.688   -8018817.2    768661.28    1.0751108    72.705679    72.705679    145.41136 
    7400    72897    298.67545    -439.6411   -8083993.6    64898.929   -8019094.7     768301.9    1.0756137    72.694347    72.694347    145.38869 
    7500    72897    300.37051   -586.51048   -8084217.3    65267.246   -8018950.1    768621.09    1.0751671    72.704412    72.704412    145.40882 
    7600    72897    299.90036    278.49932   -8084018.4    65165.088   -8018853.3    769137.11    1.0744457    72.720679    72.720679    145.44136 
    7700    72897    300.64265   -209.78824   -8084100.5    65326.379   -8018774.1    769474.46    1.0739747    72.731309    72.731309    145.46262 
    7800    72897    300.26463   -1145.0681   -8084061.5    65244.239   -8018817.2    769708.01    1.0736488    72.738667    72.738667    145.47733 
    7900    72897    301.57281    164.71113   -8084617.3    65528.494   -8019088.8    769782.75    1.0735445    72.741021    72.741021    145.48204 
    8000    72897    298.98981   -507.55779   -8084411.9    64967.236   -8019444.7    769906.03    1.0733726    72.744904    72.744904    145.48981 
    8100    72897    298.95415    -617.2347   -8084482.1    64959.488   -8019522.6    770119.61     1.073075     72.75163     72.75163    145.50326 
    8200    72897    299.27731    1055.7638   -8084236.7    65029.706     -8019207    770617.76    1.0723813    72.767313    72.767313    145.53463 
    8300    72897     299.5352     626.6167     -8083848    65085.743   -8018762.3       771594    1.0710245    72.798028    72.798028    145.59606 
    8400    72897    301.15867   -236.77961   -8083887.2    65438.506   -8018448.7    771220.73    1.0715429    72.786287    72.786287    145.57257 
    8500    72897    302.06376   -936.00007   -8084190.5    65635.171   -8018555.3    771259.55    1.0714889    72.787508    72.787508    145.57502 
    8600    72897    299.54828    168.46189   -8084316.5    65088.585   -8019227.9    771131.41     1.071667    72.783477    72.783477    145.56695 
    8700    72897    298.26669   -759.95172   -8084632.7    64810.108   -8019822.6    771244.96    1.0715092    72.787049    72.787049     145.5741 
    8800    72897    299.76779   -1232.0354   -8084944.6    65136.282   -8019808.3    771038.32    1.0717964    72.780548    72.780548     145.5611 
    8900    72897    299.65866    349.79575   -8084570.5    65112.569     -8019458    770811.12    1.0721123    72.773399    72.773399     145.5468 
    9000    72897    300.39081     126.8353   -8084423.5    65271.658   -8019151.9    771112.88    1.0716927    72.782894    72.782894    145.56579 
    9100    72897    299.24312    613.64192     -8084186    65022.278   -8019163.7    771989.78    1.0704754    72.810473    72.810473    145.62095 
    9200    72897    300.76116    313.57562   -8084617.1     65352.13   -8019264.9    772202.94    1.0701799    72.817174    72.817174    145.63435 
    9300    72897    299.21452    630.97355   -8084640.7    65016.062   -8019624.6    772078.83     1.070352    72.813272    72.813272    145.62654 
    9400    72897    300.06742    275.49458   -8085027.4    65201.388     -8019826    771428.51    1.0712543    72.792823    72.792823    145.58565 
    9500    72897    299.46783    561.87434   -8084811.4    65071.105   -8019740.3    770693.37    1.0722761    72.769693    72.769693    145.53939 
    9600    72897    301.76437   -558.17133   -8084993.2    65570.116   -8019423.1    770164.14    1.0730129    72.753032    72.753032    145.50606 
    9700    72897    301.63258    428.39658   -8084894.4    65541.482   -8019352.9    769849.08    1.0734521     72.74311     72.74311    145.48622 
    9800    72897    299.78479    -221.8397   -8084830.1    65139.977   -8019690.1    769763.01    1.0735721    72.740399    72.740399     145.4808 
    9900    72897    299.03816    664.55337   -8084935.3    64977.742   -8019957.5    769470.74    1.0739799    72.731192    72.731192    145.46238 
   10000    72897    299.81152    364.40422     -8085146    65145.784   -8020000.2    768786.94    1.0749351    72.709641    72.709641    145.41928 
   10100    72897    299.96859   -1346.4645   -8085153.6    65179.914   -8019973.7    767852.47    1.0762433    72.680169    72.680169    145.36034 
   10200    72897    300.09141   -864.46267   -8085087.9      65206.6   -8019881.3    767068.12    1.0773438    72.655413    72.655413    145.31083 
   10300    72897    300.45653      820.849   -8085104.3    65285.938   -8019818.3    766404.06    1.0782773    72.634441    72.634441    145.26888 
   10400    72897    300.29212    588.59609   -8085036.6    65250.213   -8019786.4     765856.9    1.0790476    72.617152    72.617152     145.2343 
   10500    72897     299.7218    197.67749   -8085054.6    65126.288   -8019928.3    765393.61    1.0797008    72.602506    72.602506    145.20501 
   10600    72897    298.97603    321.33022   -8085126.9    64964.242   -8020162.6    765080.57    1.0801426    72.592607    72.592607    145.18521 
   10700    72897    300.37856   -270.73228   -8085345.5    65268.995   -8020076.5    765173.68    1.0800111    72.595552    72.595552     145.1911 
   10800    72897    299.23519     867.1947   -8084842.1    65020.555   -8019821.6     764901.2    1.0803958    72.586933    72.586933    145.17387 
   10900    72897    301.61062   -1469.4015   -8085100.7     65536.71     -8019564    764923.36    1.0803645    72.587634    72.587634    145.17527 
   11000    72897    300.32089   -587.18769   -8085165.5    65256.465     -8019909    763976.88     1.081703    72.557683    72.557683    145.11537 
   11100    72897    297.97843   -318.45103   -8085157.3    64747.474   -8020409.8    763058.17    1.0830053    72.528587    72.528587    145.05717 
   11200    72897    300.09806   -436.02715   -8085733.1    65208.046   -8020525.1    762814.51    1.0833513    72.520866    72.520866    145.04173 
   11300    72897    300.11251   -106.30345     -8085695    65211.185   -8020483.8    762535.14    1.0837482    72.512012    72.512012    145.02402 
   11400    72897    299.66796    551.56524   -8085411.5     65114.59   -8020296.9     762016.3    1.0844861    72.495562    72.495562    144.99112 
   11500    72897    300.61169   -348.44785   -8085324.7    65319.652   -8020005.1    761740.44    1.0848788    72.486813    72.486813    144.97363 
   11600    72897    300.83221   -804.94906   -8085586.6    65367.568     -8020219    761164.63    1.0856995    72.468544    72.468544    144.93709 
   11700    72897     299.2028   -723.67484   -8085752.6    65013.517   -8020739.1    760655.88    1.0864257    72.452395    72.452395    144.90479 
   11800    72897    299.44315    986.06899   -8086091.1    65065.741   -8021025.3    759698.71    1.0877945    72.421992    72.421992    144.84398 
   11900    72897    298.96547     506.1068   -8085877.3    64961.946   -8020915.3    758754.99    1.0891475    72.391991    72.391991    144.78398 
   12000    72897     300.7465   -180.71543   -8085779.2    65348.945   -8020430.3    757846.59     1.090453     72.36309     72.36309    144.72618 
   12100    72897    300.92595   -366.53088     -8085737    65387.938   -8020349.1    756700.07    1.0921052    72.326579    72.326579    144.65316 
   12200    72897    299.24279    330.11235   -8085661.5    65022.205   -8020639.3    755040.01    1.0945063     72.27365     72.27365     144.5473 
   12300    72897    299.95533   -561.97678   -8086093.4    65177.032   -8020916.4    754272.04    1.0956207    72.249138    72.249138    144.49828 
   12400    72897    300.06548   -442.29369   -8086358.4    65200.968   -8021157.5    753750.14    1.0963793    72.232471    72.232471    144.46494 
   12500    72897    300.46639    324.91032   -8086428.1     65288.08     -8021140    753424.75    1.0968528    72.222075    72.222075    144.44415 
   12600    72897     300.1008    740.54532   -8086420.5    65208.642   -8021211.9    753059.43    1.0973849      72.2104      72.2104     144.4208 
   12700    72897    299.57338   -907.47748   -8086397.4    65094.038   -8021303.4    752191.41    1.0986513    72.182645    72.182645    144.36529 
   12800    72897    299.09884    432.49876   -8086148.6    64990.927   -8021157.6    751535.33    1.0996104    72.161652    72.161652     144.3233 
   12900    72897    300.13695   -144.40638   -8086139.2    65216.497   -8020922.7    751337.91    1.0998994    72.155333    72.155333    144.31067 
   13000    72897    300.86399    756.08538   -8086210.3    65374.474   -8020835.8    750784.45    1.1007102    72.137611    72.137611    144.27522 
   13100    72897    299.34414    1394.0475   -8086005.9    65044.227   -8020961.6    750541.35    1.1010667    72.129825    72.129825    144.25965 
   13200    72897    300.37611    1161.8003   -8086259.5    65268.463   -8020991.1    750297.76    1.1014242     72.12202     72.12202    144.24404 
   13300    72897     299.5492    558.46015   -8086166.5    65088.785   -8021077.8    750180.16    1.1015968    72.118252    72.118252     144.2365 
   13400    72897    301.15327   -635.94123   -8086416.7    65437.332   -8020979.4    750057.29    1.1017773    72.114315    72.114315    144.22863 
   13500    72897    300.40145    925.90033   -8086605.7     65273.97   -8021331.7     750182.1     1.101594    72.118314    72.118314    144.23663 
   13600    72897    298.53228    744.71274   -8086760.3    64867.819   -8021892.5    750391.91     1.101286    72.125037    72.125037    144.25007 
   13700    72897    298.33802    -1027.022   -8086582.7    64825.609   -8021757.1    750195.79    1.1015739    72.118753    72.118753    144.23751 
   13800    72897     300.5865    215.65064   -8086349.6    65314.179   -8021035.4    749547.58    1.1025265    72.097976    72.097976    144.19595 
   13900    72897    302.38934   -1025.8131   -8086333.6    65705.916   -8020627.7    748872.01    1.1035211    72.076308    72.076308    144.15262 
   14000    72897    299.92448    927.48328   -8086218.6    65170.329   -8021048.2    747795.18    1.1051102    72.041745    72.041745    144.08349 
   14100    72897    300.15129    220.05207   -8086928.2    65219.611   -8021708.5    747077.61    1.1061717    72.018694    72.018694    144.03739 
   14200    72897    298.32772    546.06209   -8086948.3    64823.371   -8022124.9    747149.38    1.1060654       72.021       72.021      144.042 
   14300    72897    298.67102   -631.95763   -8086711.7    64897.967   -8021813.7       746723     1.106697    72.007297    72.007297    144.01459 
   14400    72897    300.72366    435.92371   -8086561.4    65343.982   -8021217.5    745816.34    1.1080423    71.978142    71.978142    143.95628 
   14500    72897    301.20123   -766.85139   -8086439.5    65447.753   -8020991.8    745914.31    1.1078968    71.981294    71.981294    143.96259 
   14600    72897     301.4439    -126.8258   -8086753.9    65500.482   -8021253.5     745996.5    1.1077747    71.983937    71.983937    143.96787 
   14700    72897    298.82412    -1008.197   -8086785.8    64931.232   -8021854.5    746382.44    1.1072019    71.996349    71.996349     143.9927 
   14800    72897    299.93884   -1077.3936   -8087305.5    65173.449     -8022132    746136.65    1.1075667    71.988445    71.988445    143.97689 
   14900    72897    299.68586   -236.92927   -8087316.6    65118.479   -8022198.1    745486.18    1.1085331    71.967519    71.967519    143.93504 
   15000    72897    299.68944    810.04331   -8087072.7    65119.257   -8021953.5    744616.21    1.1098282    71.939513    71.939513    143.87903 
   15100    72897    301.79693     971.4969   -8087115.3    65577.192   -8021538.1    743964.32    1.1108007    71.918514    71.918514    143.83703 
   15200    72897     300.9875   -838.58434   -8086753.3    65401.313   -8021351.9    743769.52    1.1110916    71.912236    71.912236    143.82447 
   15300    72897    300.74733   -1251.8378   -8086934.4    65349.125   -8021585.3    744118.33    1.1105708    71.923476    71.923476    143.84695 
   15400    72897    299.62634    98.603655   -8087346.1    65105.545   -8022240.6    743892.79    1.1109075    71.916209    71.916209    143.83242 
   15500    72897    298.63598      811.722   -8087462.2    64890.352   -8022571.9    743027.13    1.1122018    71.888302    71.888302     143.7766 
   15600    72897    299.01925    900.87325   -8087270.6    64973.633   -8022296.9    742730.24    1.1126463    71.878726    71.878726    143.75745 
   15700    72897    301.44896   -322.99414   -8087240.9    65501.583   -8021739.3    742581.79    1.1128688    71.873937    71.873937    143.74787 
   15800    72897    301.23923    1150.0411   -8086964.3    65456.009   -8021508.3    742422.18     1.113108    71.868787    71.868787    143.73757 
   15900    72897    300.63822     1798.565   -8087013.4    65325.417     -8021688    742519.24    1.1129625    71.871919    71.871919    143.74384 
   16000    72897     299.6955   -420.56936   -8087198.1    65120.574   -8022077.5    742307.59    1.1132798    71.865089    71.865089    143.73018 
   16100    72897    299.21212   -504.61959   -8087271.5    65015.541   -8022255.9    741885.65     1.113913     71.85147     71.85147    143.70294 
   16200    72897    299.83298    123.14577   -8087351.3    65150.447   -8022200.9    741037.16    1.1151884    71.824068    71.824068    143.64814 
   16300    72897    299.39839    636.68473   -8087072.3    65056.015   -8022016.2    740442.06    1.1160847    71.804836    71.804836    143.60967 
   16400    72897    300.13612    302.93419   -8087090.6    65216.316   -8021874.3    739883.04     1.116928    71.786761    71.786761    143.57352 
   16500    72897    301.53904    1341.8617   -8087406.8    65521.156   -8021885.6    739398.03    1.1176607    71.771072    71.771072    143.54214 
   16600    72897    298.77586   -85.973258     -8087105    64920.747   -8022184.2     739425.2    1.1176196    71.771951    71.771951     143.5439 
   16700    72897    298.55322   -717.69526   -8087267.9     64872.37   -8022395.5    739793.32    1.1170634    71.783859    71.783859    143.56772 
   16800    72897     298.4681    24.715028   -8087042.6    64853.875   -8022188.8    739688.78    1.1172213    71.780478    71.780478    143.56096 
   16900    72897    300.26108   -884.00516   -8087007.4    65243.469   -8021763.9    739743.53    1.1171386    71.782249    71.782249     143.5645 
   17000    72897    301.42088    329.30958   -8087246.4    65495.481   -8021750.9    739496.01    1.1175126    71.774242    71.774242    143.54848 
   17100    72897     300.1026    1443.8694   -8087461.8    65209.032   -8022252.7    738814.96    1.1185427    71.752201    71.752201     143.5044 
   17200    72897    298.90495   -683.11987   -8087686.7    64948.797   -8022737.9    738785.85    1.1185868    71.751259    71.751259    143.50252 
   17300    72897    297.61257    206.85247   -8087444.3    64667.976   -8022776.4    738691.89    1.1187291    71.748217    71.748217    143.49643 
   17400    72897    300.18729   -338.68264   -8087538.2    65227.435   -8022310.7    738367.13    1.1192211    71.737701    71.737701     143.4754 
   17500    72897    300.95357   -940.38369   -8087374.8    65393.939   -8021980.9    737804.65    1.1200744     71.71948     71.71948    143.43896 
   17600    72897     301.7831   -1463.2626   -8087641.7    65574.187   -8022067.5    737246.19    1.1209228     71.70138     71.70138    143.40276 
   17700    72897    298.62612    794.43682     -8087546    64888.209   -8022657.8    736813.12    1.1215817    71.687338    71.687338    143.37468 
   17800    72897    299.04592      662.417     -8087923    64979.427   -8022943.6    736480.34    1.1220884    71.676544    71.676544    143.35309 
   17900    72897    300.34772    1067.6415     -8088008    65262.294   -8022745.7     736270.4    1.1224084    71.669732    71.669732    143.33946 
   18000    72897    299.39716   -1041.6562   -8087506.5    65055.748   -8022450.7    736147.02    1.1225965    71.665729    71.665729    143.33146 
   18100    72897    300.09346   -1439.4422   -8087467.1    65207.046     -8022260    736209.13    1.1225018    71.667744    71.667744    143.33549 
   18200    72897    300.46704   -804.20408   -8087569.5    65288.222   -8022281.3    735872.95    1.1230146    71.656834    71.656834    143.31367 
   18300    72897    298.71947    473.25354   -8087510.2    64908.494   -8022601.7    734780.04     1.124685    71.621342    71.621342    143.24268 
   18400    72897    299.56242   -993.38473     -8087891    65091.658   -8022799.4    733836.93    1.1261304    71.590686    71.590686    143.18137 
   18500    72897    299.03221   -180.72647   -8087915.8    64976.448   -8022939.4    733517.17    1.1266213    71.580286    71.580286    143.16057 
   18600    72897     298.5418    -1423.597   -8087994.1    64869.888   -8023124.2    732908.51    1.1275569    71.560482    71.560482    143.12096 
   18700    72897    299.55478   -1047.6556   -8088131.8    65089.998   -8023041.8    732819.62    1.1276937    71.557589    71.557589    143.11518 
   18800    72897    299.75098    760.26437   -8087911.9    65132.628   -8022779.3    732773.69    1.1277644    71.556094    71.556094    143.11219 
   18900    72897    301.22063   -92.536837   -8088064.6    65451.968   -8022612.6    732560.38    1.1280928     71.54915     71.54915     143.0983 
   19000    72897    300.02879   -564.95244   -8088131.8    65192.996   -8022938.8    732213.36    1.1286274     71.53785     71.53785     143.0757 
   19100    72897    298.00674   -306.54078   -8088263.2    64753.625   -8023509.6       732174    1.1286881    71.536568    71.536568    143.07314 
   19200    72897    298.63002    106.65266   -8088468.4    64889.056   -8023579.4    732093.47    1.1288123    71.533945    71.533945    143.06789 
   19300    72897    298.80948   -10.621354   -8088017.4    64928.052   -8023089.4    731700.36    1.1294187    71.521139    71.521139    143.04228 
   19400    72897    302.55465   -711.69943   -8087992.4    65741.837   -8022250.6    731779.98    1.1292958    71.523734    71.523734    143.04747 
   19500    72897    301.62033    286.48665   -8087816.7    65538.819   -8022277.9    731590.17    1.1295888    71.517549    71.517549     143.0351 
   19600    72897     300.1424   -814.45043   -8088225.7    65217.681     -8023008    730960.44     1.130562    71.497023    71.497023    142.99405 
   19700    72897     298.9959    396.74766   -8088621.9    64968.559   -8023653.3    730316.25    1.1315592    71.476013    71.476013    142.95203 
   19800    72897    298.71436    394.71783   -8088593.5    64907.384   -8023686.1    729435.83     1.132925     71.44728     71.44728    142.89456 
   19900    72897    300.64127     667.9771   -8088471.3    65326.079   -8023145.3    729102.34    1.1334432     71.43639     71.43639    142.87278 
   20000    72897    300.97507    113.31815   -8088065.2     65398.61   -8022666.6    729020.76      1.13357    71.433725    71.433725    142.86745 
   20100    72897    300.75542    481.36299   -8088085.3    65350.883   -8022734.5    729270.92    1.1331812    71.441895    71.441895    142.88379 
   20200    72897    300.03629    1563.2418   -8088409.7    65194.625   -8023215.1     729128.7    1.1334022    71.437251    71.437251     142.8745 
   20300    72897    299.46778   -653.72046   -8088812.4    65071.093   -8023741.3    729232.79    1.1332404     71.44065     71.44065     142.8813 
   20400    72897    298.51877   -1805.1364   -8088861.3    64864.884   -8023996.4     729130.7    1.1333991    71.437316    71.437316    142.87463 
   20500    72897    299.32169    745.25866   -8088745.7     65039.35   -8023706.3    728016.93     1.135133    71.400923    71.400923    142.80185 
   20600    72897    301.55757   -233.42575   -8088681.7    65525.182   -8023156.5    727534.35     1.135886    71.385143    71.385143    142.77029 
   20700    72897    299.68364   -1498.4961   -8088099.3    65117.998   -8022981.3    727662.39    1.1356861    71.389331    71.389331    142.77866 
   20800    72897    301.04415   -1432.1227   -8088287.9    65413.622   -8022874.3    727776.43    1.1355082     71.39306     71.39306    142.78612 
   20900    72897    300.22074    1307.1736   -8088319.5    65234.702   -8023084.8    727528.58     1.135895    71.384955    71.384955    142.76991 
   21000    72897    298.81152    870.37156   -8088566.9    64928.495   -8023638.4    727125.85    1.1365241     71.37178     71.37178    142.74356 
   21100    72897    298.46676   -613.38516   -8088946.4    64853.583   -8024092.8    726749.62    1.1371125    71.359468    71.359468    142.71894 
   21200    72897    299.91522     -111.397   -8089174.6    65168.318   -8024006.3    725962.29    1.1383457     71.33369     71.33369    142.66738 
   21300    72897    300.02651   -317.56519   -8088676.8    65192.499   -8023484.3    724952.38    1.1399315    71.300596    71.300596    142.60119 
   21400    72897    301.85251   -355.12618   -8088593.2    65589.269   -8023003.9    724352.58    1.1408755    71.280927    71.280927    142.56185 
   21500    72897     300.4243   -1328.8956     -8088482    65278.934   -8023203.1    724951.23    1.1399333    71.300559    71.300559    142.60112 
   21600    72897    298.92527   -453.03573     -8088671    64953.212   -8023717.8     725645.8    1.1388422    71.323322    71.323322    142.64664 
   21700    72897    298.20035     494.8519   -8088766.2    64795.695   -8023970.5    725422.97     1.139192    71.316021    71.316021    142.63204 
   21800    72897    298.93011   -47.005869   -8088543.3    64954.264     -8023589    725655.44    1.1388271    71.323638    71.323638    142.64728 
   21900    72897    300.78111   -202.32731   -8088330.6    65356.466   -8022974.1    725847.07    1.1385264    71.329916    71.329916    142.65983 
   22000    72897    301.65295    190.54483   -8088307.2    65545.907   -8022761.3     725532.3    1.1390204    71.319603    71.319603    142.63921 
   22100    72897    300.20224    867.26853   -8088361.7    65230.683     -8023131    725099.51    1.1397002    71.305419    71.305419    142.61084 
   22200    72897    299.08331   -1328.4701   -8088647.6    64987.551   -8023660.1    724835.22    1.1401158    71.296755    71.296755    142.59351 
   22300    72897    299.34586    449.05629   -8088764.1    65044.602   -8023719.5    724546.17    1.1405706    71.287277    71.287277    142.57455 
   22400    72897    299.81889    516.53887   -8088345.1    65147.386   -8023197.7     724607.1    1.1404747    71.289275    71.289275    142.57855 
   22500    72897    301.81647   -521.09757   -8088346.4    65581.439     -8022765    724907.46    1.1400022    71.299123    71.299123    142.59825 
   22600    72897    301.25333   -1006.8429   -8088426.3    65459.075   -8022967.2    724867.88    1.1400644    71.297826    71.297826    142.59565 
   22700    72897    299.41527    426.69828     -8088440    65059.684   -8023380.3    724474.26    1.1406838    71.284918    71.284918    142.56984 
   22800    72897    300.41625   -440.81935   -8088846.2    65277.185     -8023569    724079.55    1.1413057     71.27197     71.27197    142.54394 
   22900    72897    300.13085   -12.497114   -8088893.1     65215.17     -8023678    723911.39    1.1415708    71.266452    71.266452     142.5329 
   23000    72897    299.88562   -733.01602   -8088912.8    65161.884   -8023750.9    723443.85    1.1423085    71.251106    71.251106    142.50221 
   23100    72897    300.31091    38.981018   -8088973.8    65254.297   -8023719.5    723285.95    1.1425579    71.245922    71.245922    142.49184 
   23200    72897    299.06957    1003.9991   -8088552.8    64984.567   -8023568.3    723889.96    1.1416046    71.265749    71.265749     142.5315 
   23300    72897    299.88873    1105.2774   -8088524.8     65162.56   -8023362.2    724399.47    1.1408016    71.282465    71.282465    142.56493 
   23400    72897    300.96534    609.45441   -8088672.4    65396.496   -8023275.9    724458.54    1.1407086    71.284402    71.284402     142.5688 
   23500    72897    301.23814   -528.85155   -8088759.4    65455.773   -8023303.6    724713.61    1.1403071    71.292767    71.292767    142.58553 
   23600    72897     300.4064   -109.25394   -8088636.6    65275.045   -8023361.6    724406.35    1.1407908    71.282691    71.282691    142.56538 
   23700    72897    299.88932   -809.47801   -8088646.4    65162.688   -8023483.8    723762.56    1.1418055    71.261568    71.261568    142.52314 
   23800    72897    300.48216    185.15882   -8089036.4    65291.507   -8023744.9     723412.1    1.1423587    71.250064    71.250064    142.50013 
   23900    72897     299.1824   -612.28524   -8089037.8    65009.083   -8024028.7    722970.05    1.1430571    71.235548    71.235548     142.4711 
   24000    72897    298.56119    102.57438   -8088874.4    64874.101   -8024000.3    722851.21    1.1432451    71.231645    71.231645    142.46329 
   24100    72897    300.18421    208.09956   -8088888.8    65226.766     -8023662    722969.42    1.1430581    71.235527    71.235527    142.47105 
   24200    72897    299.56309    705.70322   -8088446.4    65091.803   -8023354.6    723514.36    1.1421972    71.253421    71.253421    142.50684 
   24300    72897     299.9774    365.61957   -8088391.9    65181.828     -8023210     723698.9     1.141906    71.259478    71.259478    142.51896 
   24400    72897     301.3419   -17.876699   -8088744.2     65478.32   -8023265.8    723194.98    1.1427016    71.242935    71.242935    142.48587 
   24500    72897     300.5867    1426.5242     -8089078    65314.222   -8023763.7     722767.3    1.1433778    71.228888    71.228888    142.45778 
   24600    72897    298.30287    270.65304   -8089181.6    64817.971   -8024363.7    722695.04    1.1434921    71.226515    71.226515    142.45303 
   24700    72897    298.23059   -5.8385736   -8089386.1    64802.266   -8024583.9     722527.9    1.1437566    71.221023    71.221023    142.44205 
   24800    72897    299.98649    493.08061   -8089217.3    65183.803   -8024033.5    721826.83    1.1448675     71.19798     71.19798    142.39596 
   24900    72897    301.42945   -1698.5721   -8088898.1    65497.343   -8023400.8    721414.79    1.1455214    71.184431    71.184431    142.36886 
   25000    72897    301.75313   -932.25199   -8088822.6    65567.674     -8023255    721224.18    1.1458241    71.178161    71.178161    142.35632 
   25100    72897    300.99848   -770.40273   -8088977.8    65403.698   -8023574.1    721388.37    1.1455634    71.183562    71.183562    142.36712 
   25200    72897    299.17803    913.16683   -8089179.7    65008.135   -8024171.6    721191.22    1.1458765    71.177076    71.177076    142.35415 
   25300    72897    299.78625   -832.36173   -8089549.2    65140.293   -8024408.9    721265.27    1.1457589    71.179512    71.179512    142.35902 
   25400    72897    300.51709   -640.73415   -8089617.4    65299.097   -8024318.3    721056.03    1.1460914    71.172629    71.172629    142.34526 
   25500    72897    300.24103    1392.1885   -8089414.9    65239.112   -8024175.8    720438.89    1.1470731    71.152318    71.152318    142.30464 
   25600    72897    299.92946    866.14012   -8089183.3    65171.411   -8024011.8    719654.51    1.1483234    71.126486    71.126486    142.25297 
   25700    72897    299.94425    771.53111   -8088927.3    65174.625   -8023752.6    719443.37    1.1486604    71.119529    71.119529    142.23906 
   25800    72897    301.41885   -362.23277   -8089073.2    65495.039   -8023578.2    719554.34    1.1484832    71.123186    71.123186    142.24637 
   25900    72897    299.81666    271.86986   -8089064.4    65146.901   -8023917.5    719209.33    1.1490342    71.111816    71.111816    142.22363 
   26000    72897    298.69334   -409.47486   -8089257.1    64902.816   -8024354.3    718963.07    1.1494277    71.103699    71.103699     142.2074 
   26100    72897    298.57493    552.81497   -8089285.7    64877.087   -8024408.6    718885.83    1.1495512    71.101153    71.101153    142.20231 
   26200    72897    300.79252    357.43722   -8089397.6    65358.946   -8024038.7    719173.57    1.1490913    71.110638    71.110638    142.22128 
   26300    72897    302.31633    838.62971   -8089394.8    65690.053   -8023704.7    719097.04    1.1492136    71.108115    71.108115    142.21623 
   26400    72897    300.25341    930.60013   -8088932.9    65241.801   -8023691.1    718746.39    1.1497742    71.096556    71.096556    142.19311 
   26500    72897    300.61342    663.49405   -8089222.6    65320.028   -8023902.5    718389.04    1.1503462    71.084771    71.084771    142.16954 
   26600    72897     301.0646    -491.1076   -8089570.4    65418.065   -8024152.3    718491.22    1.1501826    71.088141    71.088141    142.17628 
   26700    72897    299.95936   -788.36475     -8089573    65177.909   -8024395.1    718989.61    1.1493853    71.104574    71.104574    142.20915 
   26800    72897    300.49649   -598.17039   -8089745.4     65294.62   -8024450.8    718949.99    1.1494486    71.103268    71.103268    142.20654 
   26900    72897    299.19507    256.33585   -8089416.1    65011.836   -8024404.3    718991.17    1.1493828    71.104626    71.104626    142.20925 
   27000    72897    299.93752    309.51001   -8089344.1    65173.163   -8024170.9    718864.28    1.1495857    71.100443    71.100443    142.20089 
   27100    72897    299.44378   -425.34945   -8089069.2    65065.878   -8024003.3    718464.11     1.150226    71.087247    71.087247    142.17449 
   27200    72897     300.0851   -834.16473     -8089171    65205.231   -8023965.8    718241.98    1.1505817     71.07992     71.07992    142.15984 
   27300    72897    300.58839    -149.6533   -8089436.6    65314.589     -8024122    718057.19    1.1508778    71.073824    71.073824    142.14765 
   27400    72897    298.50819   -96.366838   -8089268.6    64862.584     -8024406    718014.89    1.1509456    71.072428    71.072428    142.14486 
   27500    72897    299.92188    329.78345   -8089749.7    65169.765     -8024580    717849.85    1.1512102    71.066982    71.066982    142.13396 
   27600    72897    299.46789   -49.811861   -8089693.7    65071.116   -8024622.6    717579.88    1.1516433    71.058072    71.058072    142.11614 
   27700    72897    298.88874   -1331.2911   -8089392.4    64945.274   -8024447.1    717506.58     1.151761    71.055652    71.055652     142.1113 
   27800    72897    300.53411    1226.2354   -8089322.8    65302.794     -8024020    717351.02    1.1520107    71.050517    71.050517    142.10103 
   27900    72897    299.43766    347.46455   -8088878.2    65064.548   -8023813.7    717313.04    1.1520717    71.049263    71.049263    142.09853 
   28000    72897    300.49079    619.11434   -8089014.5    65293.383   -8023721.1    717708.19    1.1514374    71.062307    71.062307    142.12461 
   28100    72897    300.51279    777.20795   -8089096.8    65298.163   -8023798.6    718219.83    1.1506172    71.079189    71.079189    142.15838 
   28200    72897    300.63891    39.611535   -8089447.1    65325.567   -8024121.5    718008.55    1.1509558    71.072219    71.072219    142.14444 
   28300    72897    299.77428   -57.260263   -8089497.3    65137.693   -8024359.6     717812.9    1.1512695    71.065763    71.065763    142.13153 
   28400    72897    300.21052     577.6093   -8089733.2    65232.482   -8024500.7     717217.5    1.1522252    71.046108    71.046108    142.09222 
   28500    72897    299.93504    476.60422   -8089714.7    65172.624   -8024542.1    716291.54    1.1537147    71.015521    71.015521    142.03104 
   28600    72897    299.54971   -69.737556   -8089452.5    65088.896   -8024363.6     715957.1    1.1542536    71.004466    71.004466    142.00893 
   28700    72897    302.04677    250.66335   -8089617.4    65631.481     -8023986    715726.03    1.1546263    70.996827    70.996827    141.99365 
   28800    72897    300.03144    610.42611     -8089162    65193.571   -8023968.4     715595.9    1.1548362    70.992524    70.992524    141.98505 
   28900    72897    300.78278    432.91827   -8089602.7    65356.828   -8024245.9    714974.06    1.1558406    70.971954    70.971954    141.94391 
   29000    72897    298.66445    161.09919   -8089523.6    64896.538     -8024627    714914.53    1.1559369    70.969984    70.969984    141.93997 
   29100    72897    299.74743   -1101.2584   -8089691.1    65131.858   -8024559.2    715260.26    1.1553782    70.981423    70.981423    141.96285 
   29200    72897    299.99123    711.94974   -8089691.6    65184.833   -8024506.8    715628.11    1.1547843    70.993589    70.993589    141.98718 
   29300    72897    298.58732   -632.16665   -8089583.3    64879.778   -8024703.5    716014.65    1.1541609    71.006369    71.006369    142.01274 
   29400    72897    298.94354   -516.07826   -8089685.7    64957.181   -8024728.6    716369.43    1.1535893    71.018095    71.018095    142.03619 
   29500    72897    299.78261    758.69699   -8089522.1    65139.503   -8024382.6    716476.42     1.153417     71.02163     71.02163    142.04326 
   29600    72897    301.15814   -809.54978   -8089523.4     65438.39     -8024085    716169.98    1.1539105    71.011503    71.011503    142.02301 
   29700    72897    301.48871   -1146.4806   -8089679.7    65510.219   -8024169.5    715913.34    1.1543242     71.00302     71.00302    142.00604 
   29800    72897    300.18484   -966.09594   -8089983.7    65226.903   -8024756.8    715498.69    1.1549931    70.989309    70.989309    141.97862 
   29900    72897    297.49669    517.56214   -8090016.8    64642.798     -8025374    715511.63    1.1549723    70.989737    70.989737    141.97947 
   30000    72897    298.54899   -1436.0117   -8090026.8    64871.449   -8025155.4    715408.22    1.1551392    70.986317    70.986317    141.97263 
   30100    72897    299.69003     663.2756   -8089547.2    65119.386   -8024427.8    714656.44    1.1563543    70.961443    70.961443    141.92289 
   30200    72897    302.20016    -673.6425   -8089467.7     65664.81   -8023802.8    714793.52    1.1561326     70.96598     70.96598    141.93196 
   30300    72897    301.42211   -438.99831   -8089386.8    65495.748     -8023891    714850.05    1.1560412    70.967851    70.967851     141.9357 
   30400    72897    300.64866    19.802844   -8089857.7    65327.686     -8024530    715095.69    1.1556441    70.975978    70.975978    141.95196 
   30500    72897    299.55676    590.85771   -8090279.7    65090.429   -8025189.3    715185.97    1.1554982    70.978965    70.978965    141.95793 
   30600    72897    298.29654    831.08522   -8090339.6    64816.594     -8025523    714930.83    1.1559105    70.970524    70.970524    141.94105 
   30700    72897    299.50221    142.33422   -8090105.9    65078.574   -8025027.3    714836.94    1.1560624    70.967417    70.967417    141.93483 
   30800    72897    302.11376   -1862.0327   -8089909.6    65646.036   -8024263.6    714482.99    1.1566351    70.955702    70.955702     141.9114 
   30900    72897    300.62694    564.12665   -8089607.1    65322.965   -8024284.2    714088.38    1.1572742    70.942636    70.942636    141.88527 
   31000    72897    299.85826    866.94256   -8089833.9    65155.941     -8024678    713924.53    1.1575398     70.93721     70.93721    141.87442 
   31100    72897    300.35254    1006.2463     -8090224    65263.343   -8024960.6    713518.67    1.1581983    70.923765    70.923765    141.84753 
   31200    72897    299.75135   -1150.1595   -8090218.8    65132.709   -8025086.1    713458.34    1.1582962    70.921766    70.921766    141.84353 
   31300    72897    300.59865    -660.7094   -8090330.6     65316.82   -8025013.8    713841.81     1.157674     70.93447     70.93447    141.86894 
   31400    72897     299.3222     46.01399     -8089944    65039.461   -8024904.5    713992.64    1.1574294    70.939466    70.939466    141.87893 
   31500    72897    299.73709   -814.72379   -8089718.3    65129.612   -8024588.7    713945.06    1.1575065     70.93789     70.93789    141.87578 
   31600    72897    300.25145   -319.08117   -8089389.9    65241.375   -8024148.6    713904.21    1.1575728    70.936537    70.936537    141.87307 
   31700    72897    301.78456    1168.9903   -8089743.8    65574.503   -8024169.3    713562.21    1.1581276    70.925207    70.925207    141.85041 
   31800    72897    299.91725   -584.11753     -8090068    65168.759   -8024899.2    713327.57    1.1585085    70.917432    70.917432    141.83486 
   31900    72897    298.39198   -284.91039   -8090210.4    64837.333     -8025373    713231.49    1.1586646    70.914249    70.914249     141.8285 
   32000    72897    299.38262   -288.62407   -8090213.2    65052.588   -8025160.6     712724.2    1.1594893    70.897432    70.897432    141.79486 
   32100    72897    301.44726   -561.86013   -8090264.3    65501.213   -8024763.1    712351.11    1.1600966    70.885059    70.885059    141.77012 
   32200    72897    299.89739    266.91909   -8089895.7    65164.442   -8024731.2    711861.94    1.1608938    70.868829    70.868829    141.73766 
   32300    72897    300.49243   -716.97351   -8090195.5    65293.738   -8024901.7    711427.14    1.1616033    70.854398    70.854398     141.7088 
   32400    72897    299.42934   -730.94434   -8089964.1     65062.74   -8024901.4    711359.12    1.1617143     70.85214     70.85214    141.70428 
   32500    72897    301.52911   -1800.9809   -8090223.2    65518.997   -8024704.2    711303.17    1.1618057    70.850282    70.850282    141.70056 
   32600    72897    299.23947   -635.47984   -8089749.7    65021.484   -8024728.2    710748.58    1.1627122    70.831864    70.831864    141.66373 
   32700    72897    299.82362     476.8038   -8089922.5    65148.414   -8024774.1    711278.79    1.1618455    70.849473    70.849473    141.69895 
   32800    72897    298.86315    631.91207   -8090039.9    64939.715   -8025100.2     711602.6    1.1613168    70.860222    70.860222    141.72044 
   32900    72897    298.32727     60.22183   -8090157.3    64823.273     -8025334     711711.4    1.1611393    70.863834    70.863834    141.72767 
   33000    72897    299.25944    148.36533     -8090141    65025.824   -8025115.1    711582.33    1.1613499    70.859549    70.859549     141.7191 
   33100    72897    300.95239    -696.4245   -8090037.9    65393.684   -8024644.2    710676.51    1.1628302    70.829469    70.829469    141.65894 
   33200    72897    300.69905    586.33182   -8089807.4    65338.634   -8024468.8    709786.84    1.1642877    70.799901    70.799901     141.5998 
   33300    72897    300.37183    271.03953   -8090016.2    65267.534   -8024748.6    709429.86    1.1648735    70.788029    70.788029    141.57606 
   33400    72897    298.48524     761.3801   -8090008.9    64857.597   -8025151.3    709250.79    1.1651677    70.782073    70.782073    141.56415 
   33500    72897    299.27566   -277.80881   -8090147.8    65029.349   -8025118.5    709701.43    1.1644278    70.797061    70.797061    141.59412 
   33600    72897    301.01919     4.879566   -8090167.8    65408.198   -8024759.6    709945.53    1.1640274    70.805177    70.805177    141.61035 
   33700    72897    300.69062   -956.12921   -8089997.1    65336.803   -8024660.3    709697.49    1.1644343     70.79693     70.79693    141.59386 
   33800    72897    299.71851   -54.878671   -8089990.8    65125.574   -8024865.2    709069.64    1.1654653    70.776046    70.776046    141.55209 
   33900    72897    298.60826    671.12385   -8090035.8    64884.328   -8025151.5    708121.78    1.1670254    70.744495    70.744495    141.48899 
   34000    72897    298.86898    667.77783   -8090321.5     64940.98   -8025380.5    707504.81    1.1680431    70.723943    70.723943    141.44789 
   34100    72897    299.94064   -260.67275   -8090546.2    65173.841   -8025372.3    707604.31    1.1678788    70.727259    70.727259    141.45452 
   34200    72897    300.80005   -276.55726   -8090446.8     65360.58   -8025086.3    708278.65    1.1667669    70.749719    70.749719    141.49944 
   34300    72897    301.31563   -1165.6142   -8090459.6    65472.611   -8024986.9    708301.13    1.1667299    70.750467    70.750467    141.50093 
   34400    72897    299.94832   -351.56766   -8090341.6    65175.509   -8025166.1    707855.47    1.1674644    70.735626    70.735626    141.47125 
   34500    72897    299.38583     234.6753   -8090434.6    65053.286   -8025381.3    708323.16    1.1666936    70.751201    70.751201     141.5024 
   34600    72897    298.29171     145.5896   -8090071.6    64815.546   -8025256.1     708811.5    1.1658898    70.767456    70.767456    141.53491 
   34700    72897     300.3812   -781.48782   -8090071.8     65269.57   -8024802.3    708827.26    1.1658639    70.767981    70.767981    141.53596 
   34800    72897    300.52909   -704.40894   -8089962.3    65301.705   -8024660.6    708287.94    1.1667516    70.750028    70.750028    141.50006 
   34900    72897    300.15009   -1507.1958   -8090093.9    65219.353   -8024874.5    708194.65    1.1669053    70.746922    70.746922    141.49384 
   35000    72897    298.64226    116.08078     -8090251    64891.717   -8025359.3    708199.49    1.1668973    70.747083    70.747083    141.49417 
   35100    72897    298.13451     174.5533   -8090301.1    64781.389   -8025519.7    707858.58    1.1674593    70.735729    70.735729    141.47146 
   35200    72897    298.93645    881.21383   -8090204.4    64955.641   -8025248.7    708086.26    1.1670839    70.743312    70.743312    141.48662 
   35300    72897     300.1636    258.39077   -8090049.2    65222.286   -8024826.9    708370.19    1.1666161    70.752767    70.752767    141.50553 
   35400    72897    300.67609   -845.15179     -8089826    65333.646   -8024492.3    708089.25     1.167079    70.743412    70.743412    141.48682 
   35500    72897    301.24119    6.7905559   -8090002.8    65456.437   -8024546.3    707826.75    1.1675118    70.734669    70.734669    141.46934 
   35600    72897    298.65018   -273.09683   -8090168.2    64893.438   -8025274.8    707417.55    1.1681871    70.721035    70.721035    141.44207 
   35700    72897    298.30838    -407.7386   -8090633.3    64819.168   -8025814.1    706953.75    1.1689535    70.705577    70.705577    141.41115 
   35800    72897    299.69589    564.39708   -8090810.2     65120.66   -8025689.6    706746.06     1.169297    70.698652    70.698652     141.3973 
   35900    72897    300.96238   -116.22874   -8090527.7    65395.854   -8025131.9    706673.51    1.1694171    70.696233    70.696233    141.39247 
   36000    72897    300.56304   -6.7054909   -8090093.4    65309.082   -8024784.3    706199.17    1.1702026    70.680411    70.680411    141.36082 
   36100    72897    301.60395     32.30669   -8090321.9     65535.26   -8024786.6    706264.55    1.1700942    70.682593    70.682593    141.36519 
   36200    72897    300.11657    2504.1669   -8090293.6    65212.067   -8025081.5    706021.71    1.1704967    70.674491    70.674491    141.34898 
   36300    72897    300.25322   -1183.3509   -8090651.9     65241.76   -8025410.1    706000.92    1.1705312    70.673797    70.673797    141.34759 
   36400    72897    299.56651     1284.427   -8090655.6    65092.545   -8025563.1    705605.97    1.1711863    70.660616    70.660616    141.32123 
   36500    72897    299.04997    907.95632     -8090462    64980.308   -8025481.7    705508.66    1.1713479    70.657367    70.657367    141.31473 
   36600    72897    300.66992   -179.11689   -8090569.4    65332.304   -8025237.1    705748.79    1.1709493    70.665383    70.665383    141.33077 
   36700    72897    300.57466    1051.2964   -8090416.3    65311.607   -8025104.7    705827.02    1.1708196    70.667994    70.667994    141.33599 
   36800    72897    300.54472    484.21418     -8090425      65305.1   -8025119.9    705908.83    1.1706839    70.670724    70.670724    141.34145 
   36900    72897    299.43138   -630.07508   -8090424.4    65063.184   -8025361.2    706178.47    1.1702369    70.679721    70.679721    141.35944 
   37000    72897    298.98775    1103.1695   -8090534.7    64966.787   -8025567.9    706312.51    1.1700148    70.684193    70.684193    141.36839 
   37100    72897    299.25437    1446.2693   -8090574.4    65024.722   -8025549.7    705741.41    1.1709616    70.665137    70.665137    141.33027 
   37200    72897    299.70418   -241.54359   -8090492.1     65122.46   -8025369.6    705727.72    1.1709843     70.66468     70.66468    141.32936 
   37300    72897     300.4319    1268.0986   -8090454.9    65280.586   -8025174.3    705585.14    1.1712209     70.65992     70.65992    141.31984 
   37400    72897    301.49767    1035.7846   -8090627.9    65512.167   -8025115.7    705757.48    1.1709349    70.665673    70.665673    141.33135 
   37500    72897    300.74249   -86.549018   -8090628.3    65348.073   -8025280.3    705978.37    1.1705685    70.673045    70.673045    141.34609 
   37600    72897    299.95968    -1011.581   -8090778.6    65177.978   -8025600.6    706016.81    1.1705048    70.674327    70.674327    141.34865 
   37700    72897    300.09337   -182.61891   -8090986.1    65207.028   -8025779.1     705659.1    1.1710982    70.662389    70.662389    141.32478 
   37800    72897    299.32965   -17.861352   -8090684.3     65041.08   -8025643.2    705517.97    1.1713324    70.657678    70.657678    141.31536 
   37900    72897    300.57496    123.14557   -8090574.6    65311.671   -8025262.9    704978.44    1.1722289    70.639662    70.639662    141.27932 
   38000    72897    301.16121    495.38199     -8090468    65439.056     -8025029    704463.85    1.1730851    70.622471    70.622471    141.24494 
   38100    72897    300.72201    -809.7142   -8090508.1    65343.623   -8025164.5    704510.98    1.1730067    70.624045    70.624045    141.24809 
   38200    72897    299.40807   -566.34249   -8090668.1    65058.119   -8025609.9    704410.68    1.1731737    70.620694    70.620694    141.24139 
   38300    72897    299.06187   -739.78658   -8090761.5    64982.893   -8025778.7    704036.59    1.1737971     70.60819     70.60819    141.21638 
   38400    72897    300.30885   -934.23691     -8090915    65253.849   -8025661.1    704285.79    1.1733817     70.61652     70.61652    141.23304 
   38500    72897    299.39693   -519.52513   -8090520.7    65055.699   -8025465.1     704641.9    1.1727887     70.62842     70.62842    141.25684 
   38600    72897    300.62438    -487.5643   -8090616.9     65322.41   -8025294.5    704451.66    1.1731054    70.622063    70.622063    141.24413 
   38700    72897    300.01671     381.1093   -8090614.5    65190.371   -8025424.1    704364.45    1.1732507    70.619149    70.619149     141.2383 
   38800    72897    299.57635   -594.23662   -8090664.7    65094.685     -8025570    704044.83    1.1737833    70.608466    70.608466    141.21693 
   38900    72897    300.17949    309.84978   -8090804.9    65225.741   -8025579.2    703737.49    1.1742959     70.59819     70.59819    141.19638 
   39000    72897    299.71217   -923.80768   -8090680.4    65124.196   -8025556.2    703604.93    1.1745172    70.593757    70.593757    141.18751 
   39100    72897    300.75977    136.19554   -8090694.1    65351.829   -8025342.3    704024.58    1.1738171    70.607788    70.607788    141.21558 
   39200    72897    300.50983   -301.59003   -8090421.7     65297.52   -8025124.2    704328.29    1.1733109     70.61794     70.61794    141.23588 
   39300    72897    301.27261    426.36199   -8090490.9    65463.263   -8025027.6    704087.73    1.1737118    70.609899    70.609899     141.2198 
   39400    72897    301.28708    302.81011   -8090720.3    65466.408   -8025253.9     703829.2    1.1741429    70.601256    70.601256    141.20251 
   39500    72897    300.23694   -47.439081   -8090955.8    65238.223   -8025717.6    703573.27      1.17457    70.592698    70.592698     141.1854 
   39600    72897    299.15054    16.143724   -8090737.5     65002.16   -8025735.3    703796.44    1.1741976    70.600161    70.600161    141.20032 
   39700    72897    300.29537    -1238.553   -8090783.6    65250.919   -8025532.7     703493.9    1.1747026    70.590043    70.590043    141.18009 
   39800    72897    300.77239   -202.39757   -8090696.8     65354.57   -8025342.2    703292.41    1.1750391    70.583303    70.583303    141.16661 
   39900    72897    301.81411    676.64965   -8090740.9    65580.924     -8025160    703111.15     1.175342    70.577239    70.577239    141.15448 
   40000    72897    300.09829    110.28128   -8090753.8    65208.095   -8025545.7    703403.56    1.1748534    70.587021    70.587021    141.17404 
   40100    72897    299.47709    149.37947   -8090865.3    65073.116   -8025792.1    703263.49    1.1750874    70.582335    70.582335    141.16467 
   40200    72897    300.00316    131.28007   -8090802.2    65187.425   -8025614.8    703563.79    1.1745859     70.59238     70.59238    141.18476 
   40300    72897    300.00942    483.98621   -8090493.8    65188.787     -8025305    703293.34    1.1750376    70.583334    70.583334    141.16667 
   40400    72897    300.91676    60.890608   -8090527.1    65385.942   -8025141.1    703497.59    1.1746964    70.590166    70.590166    141.18033 
   40500    72897    300.61429   -159.08819   -8090588.7    65320.217   -8025268.4    703631.29    1.1744732    70.594638    70.594638    141.18928 
   40600    72897    299.47855     439.4036   -8090758.6    65073.434   -8025685.2     703629.1    1.1744768    70.594565    70.594565    141.18913 
   40700    72897    298.55606   -1257.8347   -8090519.4    64872.986   -8025646.4    703917.57    1.1739955    70.604211    70.604211    141.20842 
   40800    72897    301.04909    493.45391   -8090630.9    65414.695   -8025216.2    703726.02    1.1743151    70.597806    70.597806    141.19561 
   40900    72897    301.58169    512.32447   -8090640.8    65530.422   -8025110.3    703572.76    1.1745709    70.592681    70.592681    141.18536 
   41000    72897    298.78135    243.84531   -8090359.4    64921.938   -8025437.5    703274.95    1.1750683    70.582719    70.582719    141.16544 
   41100    72897    300.46539   -1688.4692   -8090864.8    65287.862   -8025576.9    703069.45    1.1754117    70.575843    70.575843    141.15169 
   41200    72897    299.76765   -862.02983   -8090874.4    65136.252   -8025738.1    702731.19    1.1759775    70.564523    70.564523    141.12905 
   41300    72897    298.13465    1244.9991     -8090689    64781.419   -8025907.5    702346.36    1.1766219     70.55164     70.55164    141.10328 
   41400    72897    300.04288    159.10974   -8090540.8    65196.056   -8025344.7    702374.05    1.1765755    70.552567    70.552567    141.10513 
   41500    72897    300.55897    79.539388   -8090470.7    65308.197   -8025162.5    702454.27    1.1764411    70.555253    70.555253    141.11051 
   41600    72897    301.17164   -589.18012   -8090901.3    65441.323     -8025460    702610.82     1.176179    70.560494    70.560494    141.12099 
   41700    72897     299.9007    1478.9152   -8090933.1    65165.161     -8025768    702809.07    1.1758472     70.56713     70.56713    141.13426 
   41800    72897    299.94719   -1338.7102   -8091023.3    65175.263   -8025848.1    702955.68     1.175602    70.572036    70.572036    141.14407 
   41900    72897    299.91231   -973.88784   -8090840.8    65167.685   -8025673.1    702540.23    1.1762972    70.558131    70.558131    141.11626 
   42000    72897    301.73566   -165.47248   -8090722.6     65563.88   -8025158.7    702534.76    1.1763063    70.557948    70.557948     141.1159 
   42100    72897    300.36529   -133.41602   -8090642.7    65266.111   -8025376.6    702189.61    1.1768845    70.546391    70.546391    141.09278 
   42200    72897    299.07297    596.95173     -8090615    64985.305   -8025629.7    701896.53    1.1773759    70.536575    70.536575    141.07315 
   42300    72897    300.10856   -95.210761   -8091003.6    65210.328   -8025793.3    701978.54    1.1772384    70.539322    70.539322    141.07864 
   42400    72897    300.39049   -573.89663   -8091237.4    65271.589   -8025965.8    701942.73    1.1772984    70.538122    70.538122    141.07624 
   42500    72897     298.0237    107.75279   -8091144.1    64757.311   -8026386.8    701578.39    1.1779098    70.525916    70.525916    141.05183 
   42600    72897    298.61163    498.52378   -8091425.2    64885.061   -8026540.1    701627.46    1.1778274     70.52756     70.52756    141.05512 
   42700    72897    300.04539     1665.593   -8091200.7    65196.601   -8026004.1    701569.55    1.1779247     70.52562     70.52562    141.05124 
   42800    72897    298.86845   -499.07939   -8090743.8    64940.864     -8025803    701768.35     1.177591    70.532281    70.532281    141.06456 
   42900    72897    300.60276   -475.96968   -8090879.1    65317.712   -8025561.4    701889.73    1.1773873    70.536347    70.536347    141.07269 
   43000    72897    300.31078    325.77589   -8090795.5    65254.268   -8025541.2    701948.35     1.177289    70.538311    70.538311    141.07662 
   43100    72897    299.67849    559.69856   -8091063.8    65116.879   -8025946.9    701747.02    1.1776268    70.531566    70.531566    141.06313 
   43200    72897    299.45554    757.16693   -8091198.3    65068.434   -8026129.8    701559.83     1.177941    70.525294    70.525294    141.05059 
   43300    72897     299.5879    1115.5235   -8091042.6    65097.195   -8025945.4    701486.05    1.1780649    70.522822    70.522822    141.04564 
   43400    72897    300.36054   -672.00659   -8091057.7    65265.079   -8025792.7    701531.59    1.1779884    70.524348    70.524348     141.0487 
   43500    72897    300.62087    273.91897   -8091001.9    65321.647   -8025680.3    701617.87    1.1778435    70.527239    70.527239    141.05448 
   43600    72897    300.21851    470.16497     -8091032    65234.219   -8025797.8    701335.26    1.1783182    70.517768    70.517768    141.03554 
   43700    72897    298.98533   -1606.6354   -8091213.2    64966.263   -8026246.9     700808.5    1.1792039    70.500109    70.500109    141.00022 
   43800    72897    299.32447   -782.57751   -8091218.1    65039.954   -8026178.2    700183.32    1.1802567    70.479139    70.479139    140.95828 
   43900    72897    300.10578   -1245.6023   -8091098.1    65209.723   -8025888.4    700303.14    1.1800548    70.483159    70.483159    140.96632 
   44000    72897    299.37069   -279.19173   -8090876.5    65049.997   -8025826.5     700291.6    1.1800742    70.482772    70.482772    140.96554 
   44100    72897    299.44201   -261.85791   -8090667.8    65065.493   -8025602.3    700111.43    1.1803779    70.476727    70.476727    140.95345 
   44200    72897    300.02385    504.29883   -8090656.4    65191.922   -8025464.5    699827.51    1.1808568    70.467198    70.467198     140.9344 
   44300    72897    301.04582   -1121.8959   -8090575.9    65413.985   -8025161.9    700297.25    1.1800647    70.482961    70.482961    140.96592 
   44400    72897     299.2054   -852.17055   -8090299.9    65014.081   -8025285.8    700882.39    1.1790795    70.502587    70.502587    141.00517 
   44500    72897    299.29668   -687.26782   -8090775.7    65033.915   -8025741.8    701018.24     1.178851    70.507141    70.507141    141.01428 
   44600    72897    299.22378   -649.05923   -8090892.9    65018.074   -8025874.8    701102.26    1.1787098    70.509958    70.509958    141.01992 
   44700    72897    299.28771   -59.189891   -8090761.8    65031.966   -8025729.8    701148.99    1.1786312    70.511525    70.511525    141.02305 
   44800    72897    302.36332    1613.5127     -8091034    65700.263   -8025333.7    701165.52    1.1786034    70.512079    70.512079    141.02416 
   44900    72897    301.20374     12.56554   -8090982.3    65448.298     -8025534    701242.22    1.1784745     70.51465     70.51465     141.0293 
   45000    72897     301.3554   -95.453675   -8091272.6    65481.253   -8025791.3    700747.48    1.1793065    70.498063    70.498063    140.99613 
   45100    72897    298.97976   -493.64311   -8090977.1    64965.051     -8026012    700579.92    1.1795886    70.492443    70.492443    140.98489 
   45200    72897    300.22616   -567.36065   -8091221.1    65235.881   -8025985.3    700737.82    1.1793228    70.497739    70.497739    140.99548 
   45300    72897    298.95552   -1094.8929   -8091063.6    64959.785   -8026103.8    701216.86    1.1785171      70.5138      70.5138     141.0276 
   45400    72897    298.87355   -1172.1369   -8091073.5    64941.974   -8026131.5    701069.87    1.1787642    70.508872    70.508872    141.01774 
   45500    72897    298.79942    377.93059   -8090663.4    64925.866   -8025737.5    700635.52     1.179495    70.494308    70.494308    140.98862 
   45600    72897    300.51633    659.29568   -8090756.9    65298.931     -8025458    700902.42    1.1790458    70.503258    70.503258    141.00652 
   45700    72897    301.11474   -31.226885   -8090983.9    65428.959   -8025554.9    701250.51    1.1784606    70.514928    70.514928    141.02986 
   45800    72897     300.0165   -180.03687   -8091138.4    65190.325   -8025948.1    701255.68    1.1784519    70.515101    70.515101     141.0302 
   45900    72897    299.42624   -13.648622     -8091114    65062.068   -8026051.9    700898.43    1.1790525    70.503124    70.503124    141.00625 
   46000    72897    300.37564    917.59892   -8091152.2    65268.362   -8025883.8    700559.56    1.1796229     70.49176     70.49176    140.98352 
   46100    72897    301.13134    950.37402   -8091126.4    65432.567   -8025693.8    700338.94    1.1799945     70.48436     70.48436    140.96872 
   46200    72897    300.86778   -687.39223     -8091069    65375.298   -8025693.7    700581.39    1.1795861    70.492493    70.492493    140.98499 
   46300    72897    299.08555    1016.8704   -8091167.1    64988.038   -8026179.1    700711.48    1.1793671    70.496856    70.496856    140.99371 
   46400    72897    298.43278    -891.4228   -8091308.6      64846.2   -8026462.4    701049.57    1.1787983    70.508192    70.508192    141.01638 
   46500    72897    300.18803    1221.4334   -8091383.8    65227.596   -8026156.2    700858.62    1.1791195     70.50179     70.50179    141.00358 
   46600    72897    299.27111   -851.53185   -8090897.7     65028.36   -8025869.3     701117.1    1.1786848    70.510456    70.510456    141.02091 
   46700    72897    300.94567    477.24551   -8091146.8    65392.222   -8025754.6    700853.79    1.1791276    70.501628    70.501628    141.00326 
   46800    72897    300.00185   -1046.6058   -8091048.5    65187.142   -8025861.4    700945.94    1.1789726    70.504717    70.504717    141.00943 
   46900    72897    300.33968    153.53509   -8091279.5    65260.547     -8026019    701346.21    1.1782998    70.518135    70.518135    141.03627 
   47000    72897    298.23578   -660.60837   -8091343.2    64803.393   -8026539.8     701201.6    1.1785428    70.513288    70.513288    141.02658 
   47100    72897    298.41752   -342.56851   -8091311.9    64842.883     -8026469    700739.75    1.1793195    70.497804    70.497804    140.99561 
   47200    72897    299.97942    232.79246   -8091293.4    65182.267   -8026111.1    700358.97    1.1799607    70.485032    70.485032    140.97006 
   47300    72897     301.6244   -955.05979   -8091490.9    65539.702   -8025951.2    700960.58     1.178948    70.505208    70.505208    141.01042 
   47400    72897    300.13386    356.62204   -8091140.8    65215.825     -8025925       701148    1.1786329    70.511492    70.511492    141.02298 
   47500    72897    300.55881   -409.95118   -8091256.1    65308.162   -8025947.9    700872.71    1.1790958    70.502262    70.502262    141.00452 
   47600    72897    300.09653    -1148.587   -8091311.2    65207.713   -8026103.5    700658.97    1.1794555    70.495094    70.495094    140.99019 
   47700    72897    298.94298    1252.8839     -8091205    64957.059   -8026247.9     700827.7    1.1791715    70.500753    70.500753    141.00151 
   47800    72897     300.1891   -22.872537   -8091248.7    65227.829   -8026020.9    701340.82    1.1783088    70.517955    70.517955    141.03591 
   47900    72897    299.83914   -1455.1628   -8090920.4    65151.785   -8025768.6     700932.4    1.1789954    70.504263    70.504263    141.00853 
   48000    72897    300.12535   -619.42969   -8090969.5    65213.975   -8025755.5    700528.47    1.1796752    70.490718    70.490718    140.98144 
   48100    72897    300.09059     681.3064     -8091237    65206.422   -8026030.6    700142.09    1.1803262    70.477755    70.477755    140.95551 
   48200    72897    298.79813    905.22427     -8091292    64925.586   -8026366.4    699773.85    1.1809474    70.465397    70.465397    140.93079 
   48300    72897    299.41045    949.45413   -8091195.4    65058.635   -8026136.8    699776.46     1.180943    70.465485    70.465485    140.93097 
   48400    72897     301.2824    548.79012   -8091299.8    65465.391   -8025834.4    700071.48    1.1804453    70.475386    70.475386    140.95077 
   48500    72897    299.64529    614.19128     -8090895    65109.663   -8025785.4    700144.23    1.1803226    70.477827    70.477827    140.95565 
   48600    72897     299.9968    159.68324   -8090859.3    65186.043   -8025673.2    700293.23    1.1800715    70.482826    70.482826    140.96565 
   48700    72897    300.26834    1178.6897   -8090837.7    65245.046   -8025592.7    700193.67    1.1802393    70.479486    70.479486    140.95897 
   48800    72897    300.50611    363.97458   -8090971.1    65296.712   -8025674.3    699858.85    1.1808039     70.46825     70.46825     140.9365 
   48900    72897    301.02054     1878.222     -8091263    65408.492   -8025854.5    699562.44    1.1813042      70.4583      70.4583     140.9166 
   49000    72897    299.70968    916.80686   -8091134.5    65123.654   -8026010.8    699627.66    1.1811941     70.46049     70.46049    140.92098 
   49100    72897    299.12777   -298.89732   -8090867.5    64997.212   -8025870.3    699802.48     1.180899    70.466358    70.466358    140.93272 
   49200    72897    299.51391    -393.8872     -8090682    65081.118   -8025600.9    699723.51    1.1810323    70.463708    70.463708    140.92742 
   49300    72897    301.09976   -263.97764     -8091005    65425.706   -8025579.3    699527.44    1.1813634    70.457125    70.457125    140.91425 
   49400    72897    300.91908    453.59354   -8091165.4    65386.446     -8025779    699572.77    1.1812868    70.458647    70.458647    140.91729 
   49500    72897    299.63711    -498.9696   -8091074.5    65107.887   -8025966.6    699209.99    1.1818997    70.446466    70.446466    140.89293 
   49600    72897    299.73285    769.70487   -8091093.3     65128.69   -8025964.6    698896.93    1.1824291    70.435951    70.435951     140.8719 
   49700    72897    299.14744   -285.63904     -8091041    65001.487   -8026039.5     698454.2    1.1831786    70.421074    70.421074    140.84215 
   49800    72897    300.24795   -220.63653   -8091404.3    65240.616   -8026163.7    697959.09    1.1840179    70.404431    70.404431    140.80886 
   49900    72897    300.02464    -678.9663   -8091699.5    65192.094   -8026507.4    697973.34    1.1839938     70.40491     70.40491    140.80982 
   50000    72897    298.71291   -368.88556   -8091333.5    64907.068   -8026426.5     697982.2    1.1839787    70.405208    70.405208    140.81042 
   50100    72897    300.14283    202.50712   -8091135.6    65217.774   -8025917.9    697910.84    1.1840998    70.402808    70.402808    140.80562 
   50200    72897    302.13159    -176.2021   -8091473.3     65649.91   -8025823.4    698339.82    1.1833724     70.41723     70.41723    140.83446 
   50300    72897    300.31185   -465.35888   -8091362.9    65254.501   -8026108.4    698797.87    1.1825967    70.432622    70.432622    140.86524 
   50400    72897    299.64806    1046.6843   -8091462.1    65110.267   -8026351.8    699089.46    1.1821035    70.442418    70.442418    140.88484 
   50500    72897    300.06194   -613.01008   -8091504.2    65200.198     -8026304    698924.12    1.1823831    70.436864    70.436864    140.87373 
   50600    72897    300.74218    639.14532   -8091331.6    65348.006   -8025983.6    698397.37    1.1832749    70.419164    70.419164    140.83833 
   50700    72897    300.89061   -1111.5936   -8090761.1    65380.259   -8025380.9    698093.12    1.1837906    70.408937    70.408937    140.81787 
   50800    72897      301.512   -337.03658   -8090999.8     65515.28   -8025484.5    697582.25    1.1846575    70.391758    70.391758    140.78352 
   50900    72897    299.17349    1131.1456   -8090939.5    65007.147   -8025932.3    697373.81    1.1850116    70.384746    70.384746    140.76949 
   51000    72897    299.35469    393.26948   -8091229.2    65046.519   -8026182.7    697108.32    1.1854629    70.375813    70.375813    140.75163 
[...]
  187600    72897    300.86999   -480.29647   -8093299.2    65375.779   -8027923.4    682772.12    1.2103542    69.890035    69.890035    139.78007 
  187700    72897    301.54537   -1557.8262   -8093263.3    65522.532   -8027740.8    683142.08    1.2096987    69.902656    69.902656    139.80531 
  187800    72897     298.7852     159.9431   -8092969.4    64922.777   -8028046.6    683186.55    1.2096199    69.904173    69.904173    139.80835 
  187900    72897    299.32334   -302.72784   -8093511.7    65039.709     -8028472    683250.47    1.2095068    69.906353    69.906353    139.81271 
  188000    72897    299.12251   -55.778824   -8093321.8    64996.069   -8028325.7    682570.82    1.2107111    69.883166    69.883166    139.76633 
  188100    72897    300.51696     -750.612   -8093394.5    65299.069   -8028095.4    682170.99    1.2114207    69.869519    69.869519    139.73904 
  188200    72897    300.51259    -185.2211   -8093283.9    65298.119   -8027985.7    682205.79    1.2113589    69.870707    69.870707    139.74141 
  188300    72897    300.82946    967.29431   -8093596.1     65366.97   -8028229.2    682360.62    1.2110841    69.875992    69.875992    139.75198 
  188400    72897    300.01468    473.41161   -8093800.9    65189.928     -8028611    682598.57    1.2106619    69.884113    69.884113    139.76823 
  188500    72897    300.22352   -1039.5239   -8093606.6    65235.308   -8028371.3     682991.1    1.2099661    69.897506    69.897506    139.79501 
  188600    72897    300.81967    952.66856   -8093397.9    65364.845     -8028033    683117.22    1.2097427    69.901809    69.901809    139.80362 
  188700    72897    299.69346    52.485218   -8093093.6    65120.131   -8027973.5    683148.68     1.209687    69.902882    69.902882    139.80576 
  188800    72897     300.7314   -489.16479   -8093401.4    65345.664   -8028055.7    682774.12    1.2103506    69.890104    69.890104    139.78021 
  188900    72897    298.96806   -1632.5513   -8093304.9     64962.51   -8028342.4    682651.61    1.2105678    69.885924    69.885924    139.77185 
  189000    72897    298.28677    152.55734     -8093476    64814.472   -8028661.6    682680.94    1.2105158    69.886924    69.886924    139.77385 
  189100    72897    299.95427   -602.67704   -8093378.7    65176.803   -8028201.9    682950.15    1.2100386     69.89611     69.89611    139.79222 
  189200    72897    300.47419    178.52866   -8093291.1    65289.776   -8028001.4    682715.58    1.2104544    69.888106    69.888106    139.77621 
  189300    72897    300.67102    614.20075   -8093412.9    65332.543   -8028080.3    682775.54    1.2103481    69.890152    69.890152     139.7803 
  189400    72897    299.19391    347.78076   -8093125.2    65011.584   -8028113.6    683173.89    1.2096424    69.903741    69.903741    139.80748 
  189500    72897    299.16941    585.18786   -8093048.1     65006.26   -8028041.9    683986.01    1.2082061     69.93143     69.93143    139.86286 
  189600    72897     300.9379    1761.8364   -8093226.7    65390.534   -8027836.2    683720.03    1.2086761    69.922364    69.922364    139.84473 
  189700    72897    300.53201    -570.6752   -8093114.6    65302.339   -8027812.3    683667.58    1.2087689    69.920576    69.920576    139.84115 
  189800    72897    299.65021    -313.4292   -8093299.8    65110.733     -8028189    683417.94    1.2092104    69.912064    69.912064    139.82413 
  189900    72897    299.12595   -1086.8394   -8093458.6    64996.817   -8028461.7    683395.11    1.2092508    69.911286    69.911286    139.82257 
  190000    72897    299.01519   -350.73541   -8093314.6    64972.749   -8028341.9    683585.37    1.2089142    69.917773    69.917773    139.83555 
  190100    72897     300.4999   -1291.5227     -8093424    65295.363   -8028128.7    683818.19    1.2085026     69.92571     69.92571    139.85142 
  190200    72897    300.81559   -194.72382   -8093360.1    65363.957   -8027996.1    683698.19    1.2087147     69.92162     69.92162    139.84324 
  190300    72897    302.10089   -1504.6282   -8093673.9     65643.24   -8028030.6    683622.33    1.2088489    69.919033    69.919033    139.83807 
  190400    72897    300.31661    -44.59647   -8093567.3    65255.534   -8028311.8    683560.79    1.2089577    69.916935    69.916935    139.83387 
  190500    72897    299.68443   -348.83157   -8093532.7     65118.17   -8028414.5    683724.11    1.2086689    69.922503    69.922503    139.84501 
  190600    72897    299.60457    505.43827   -8093394.4    65100.816   -8028293.6    683482.86    1.2090955    69.914278    69.914278    139.82856 
  190700    72897    300.48721   -405.94513   -8093024.2    65292.604   -8027731.6    683463.11    1.2091305    69.913604    69.913604    139.82721 
  190800    72897    300.01569   -941.16853   -8092923.9    65190.148   -8027733.7    683322.35    1.2093795    69.908805    69.908805    139.81761 
  190900    72897     299.1295    118.67145   -8092936.2    64997.588   -8027938.6    683415.67    1.2092144    69.911987    69.911987    139.82397 
  191000    72897     299.0645   -365.57978   -8093334.4    64983.465     -8028351    683636.35    1.2088241    69.919511    69.919511    139.83902 
  191100    72897    299.98414   -824.52348   -8093677.6    65183.293   -8028494.3    683496.77    1.2090709    69.914752    69.914752     139.8295 
  191200    72897    299.09084    197.57854   -8093428.9    64989.189   -8028439.7    683276.46    1.2094608     69.90724     69.90724    139.81448 
  191300    72897    300.10512   -217.62269   -8093539.6    65209.581     -8028330     682709.3    1.2104655    69.887892    69.887892    139.77578 
  191400    72897    299.69934    -647.9712   -8093368.6    65121.408   -8028247.2    682550.26    1.2107476    69.882465    69.882465    139.76493 
  191500    72897    300.56216    1205.8613   -8093180.3    65308.891   -8027871.4    682451.07    1.2109236    69.879079    69.879079    139.75816 
  191600    72897    301.37569    301.65927   -8093078.3    65485.662   -8027592.7    682596.56    1.2106655    69.884045    69.884045    139.76809 
  191700    72897    301.04054    387.27972   -8093432.4    65412.838   -8028019.6    682906.77    1.2101155     69.89463     69.89463    139.78926 
  191800    72897    300.30706    783.49146   -8093430.2    65253.459   -8028176.8    682564.11     1.210723    69.882937    69.882937    139.76587 
  191900    72897    300.20316   -647.71179   -8093368.3    65230.884   -8028137.4    682152.26     1.211454    69.868879    69.868879    139.73776 
  192000    72897    300.05327    -553.7748   -8093330.5    65198.313   -8028132.2    681820.82    1.2120429    69.857561    69.857561    139.71512 
  192100    72897    299.71497   -1483.3313     -8093400    65124.804   -8028275.2    682146.87    1.2114636    69.868695    69.868695    139.73739 
  192200    72897    299.28816    47.185457     -8093561    65032.064   -8028528.9    682482.99    1.2108669    69.880169    69.880169    139.76034 
  192300    72897    299.14123    12.249769   -8093631.9    65000.138   -8028631.8    682370.81     1.211066     69.87634     69.87634    139.75268 
  192400    72897    300.20974    1470.9905   -8093422.9    65232.312   -8028190.6    682347.72     1.211107    69.875552    69.875552     139.7511 
  192500    72897    299.32146   -113.15068   -8092933.8    65039.299   -8027894.5    682502.11     1.210833    69.880821    69.880821    139.76164 
  192600    72897     300.9339    31.550472   -8093249.8    65389.664   -8027860.1    682788.78    1.2103246    69.890604    69.890604    139.78121 
  192700    72897    300.61086    240.14516   -8093425.3    65319.472   -8028105.9    682871.17    1.2101786    69.893415    69.893415    139.78683 
  192800    72897    299.26967   -13.208078     -8093468    65028.047   -8028439.9    682740.11    1.2104109    69.888943    69.888943    139.77789 
  192900    72897    299.63153     487.6778   -8093492.7    65106.673     -8028386    682102.87    1.2115417    69.867193    69.867193    139.73439 
  193000    72897    300.60028    555.34661   -8093143.9    65317.173   -8027826.8     682252.6    1.2112758    69.872305    69.872305    139.74461 
  193100    72897    302.05077    1350.9046   -8093307.6     65632.35   -8027675.3    682498.05    1.2108402    69.880683    69.880683    139.76137 
  193200    72897    299.88925   -1311.9306   -8093132.7    65162.673     -8027970    683003.49    1.2099442    69.897929    69.897929    139.79586 
  193300    72897    298.74415   -1381.2571   -8093218.6    64913.855   -8028304.7    682917.58    1.2100964    69.894998    69.894998       139.79 
  193400    72897    299.65339   -677.68525   -8093402.2    65111.424   -8028290.8    682710.88    1.2104627    69.887946    69.887946    139.77589 
  193500    72897    299.85313    286.91279     -8093367    65154.825   -8028212.2    682668.34    1.2105382    69.886494    69.886494    139.77299 
  193600    72897    299.40844   -397.78766     -8093084    65058.199   -8028025.8    682731.72    1.2104258    69.888657    69.888657    139.77731 
  193700    72897    301.09656   -178.34674   -8093011.7    65425.009   -8027586.7    682780.39    1.2103395    69.890318    69.890318    139.78064 
  193800    72897    300.21132    1326.4575   -8093016.9    65232.657   -8027784.3    682906.87    1.2101153    69.894633    69.894633    139.78927 
  193900    72897    299.34172    119.00467     -8093223    65043.703   -8028179.3    683372.14    1.2092914    69.910503    69.910503    139.82101 
  194000    72897     300.1055    458.55032   -8093512.2    65209.663   -8028302.5    683527.26     1.209017    69.915792    69.915792    139.83158 
  194100    72897     299.4293   -1214.2037   -8093281.7    65062.731     -8028219    683931.95    1.2083016    69.929587    69.929587    139.85917 
  194200    72897    299.60446    131.92311     -8092968    65100.792   -8027867.2    683731.59    1.2086557    69.922758    69.922758    139.84552 
  194300    72897    300.76595   -175.26832   -8092874.5    65353.171   -8027521.3    683318.89    1.2093857    69.908687    69.908687    139.81737 
  194400    72897    299.22394   -1000.7955   -8092784.6     65018.11   -8027766.5    682964.11    1.2100139    69.896586    69.896586    139.79317 
  194500    72897    299.78287    1426.4762   -8093418.6    65139.559     -8028279    682867.77    1.2101846    69.893299    69.893299     139.7866 
  194600    72897    299.40218    579.10039   -8093380.7    65056.838   -8028323.9    682727.16    1.2104339    69.888501    69.888501      139.777 
  194700    72897    299.02903   -331.47177     -8093427    64975.758   -8028451.2    682323.05    1.2111508    69.874709    69.874709    139.74942 
  194800    72897    299.02496   -103.27376   -8093518.9    64974.874     -8028544     682104.7    1.2115385    69.867255    69.867255    139.73451 
  194900    72897    299.00726    -1149.407   -8093385.2    64971.027   -8028414.2    682052.57    1.2116311    69.865475    69.865475    139.73095 
  195000    72897    300.07557    982.32101   -8093227.1     65203.16   -8028023.9    681747.31    1.2121736    69.855051    69.855051     139.7101 
  195100    72897    301.00559    836.46399   -8093233.1    65405.242   -8027827.8    682010.61    1.2117056    69.864043    69.864043    139.72809 
  195200    72897    301.28964   -599.49297   -8093430.9    65466.965   -8027963.9    682133.35    1.2114876    69.868233    69.868233    139.73647 
  195300    72897    299.44592    90.103845     -8093579    65066.342   -8028512.6    682407.38    1.2110011    69.877588    69.877588    139.75518 
  195400    72897    299.13458   -1661.9427   -8093496.4    64998.692   -8028497.7    682488.67    1.2108568    69.880363    69.880363    139.76073 
  195500    72897    301.18091   -241.78195   -8093704.3    65443.338     -8028261     682058.7    1.2116202    69.865685    69.865685    139.73137 
  195600    72897    300.21861   -693.80517   -8093300.9    65234.241   -8028066.7    682076.79     1.211588    69.866302    69.866302     139.7326 
  195700    72897    301.66939   -975.86941     -8093207    65549.478   -8027657.5    682494.45    1.2108466     69.88056     69.88056    139.76112 
  195800    72897    302.06373     983.1513   -8093007.7    65635.165   -8027372.5    682578.36    1.2106977    69.883424    69.883424    139.76685 
  195900    72897    300.21027    300.63205   -8093149.2    65232.428   -8027916.8    682766.38    1.2103643     69.88984     69.88984    139.77968 
  196000    72897    300.30233    906.52964   -8093454.4    65252.433   -8028201.9    682881.63    1.2101601    69.893772    69.893772    139.78754 
  196100    72897     299.5182    682.05709   -8093335.3     65082.05   -8028253.2    683128.16    1.2097233    69.902182    69.902182    139.80436 
  196200    72897    300.05389   -1075.7661   -8093308.2    65198.448   -8028109.8    682791.33    1.2103201    69.890691    69.890691    139.78138 
  196300    72897    301.96413   -1016.2696   -8093490.1    65613.523   -8027876.6     682821.2    1.2102672     69.89171     69.89171    139.78342 
  196400    72897    299.80279    -1040.427   -8092989.4    65143.888   -8027845.6    682790.98    1.2103207    69.890679    69.890679    139.78136 
  196500    72897    299.57496   -1339.9153   -8093381.2    65094.383   -8028286.8    682898.38    1.2101304    69.894343    69.894343    139.78869 
  196600    72897    299.77882   -257.92956     -8093649    65138.678   -8028510.3    682619.86    1.2106241     69.88484     69.88484    139.76968 
  196700    72897    299.60241   -245.44013   -8093408.7    65100.346   -8028308.3    681866.91     1.211961    69.859135    69.859135    139.71827 
  196800    72897    300.20308   -111.32818   -8093247.6    65230.866   -8028016.7    681425.13    1.2127467    69.844045    69.844045    139.68809 
  196900    72897    300.14144     -732.681   -8093232.5    65217.473   -8028015.1    681703.72    1.2122511    69.853562    69.853562    139.70712 
  197000    72897    300.89042    761.31015   -8093462.7    65380.218   -8028082.4    681688.52    1.2122781    69.853043    69.853043    139.70609 
  197100    72897    299.32735    315.24337   -8093278.3     65040.58   -8028237.7    681384.51     1.212819    69.842657    69.842657    139.68531 
  197200    72897    299.61797   -331.94782   -8093393.8    65103.727   -8028290.1    681414.44    1.2127657     69.84368     69.84368    139.68736 
  197300    72897    300.17436   -1459.6807   -8093646.5    65224.626   -8028421.9    681330.31    1.2129155    69.840805    69.840805    139.68161 
  197400    72897    298.08609    507.00753   -8093174.2    64770.866   -8028403.3     681258.8    1.2130428    69.838362    69.838362    139.67672 
  197500    72897    301.60239    1167.6734   -8093560.1    65534.922   -8028025.2    682263.22     1.211257    69.872667    69.872667    139.74533 
  197600    72897    299.72828    22.173083     -8093040    65127.698   -8027912.3    682438.19    1.2109464     69.87864     69.87864    139.75728 
  197700    72897     300.8963     586.0833   -8093306.3    65381.494   -8027924.8    682526.85    1.2107891    69.881666    69.881666    139.76333 
  197800    72897    299.79039    1343.4531   -8093424.7    65141.192   -8028283.5    683268.68    1.2094746    69.906974    69.906974    139.81395 
  197900    72897     298.7449    1311.3091   -8093494.4     64914.02   -8028580.4    683652.22     1.208796    69.920052    69.920052     139.8401 
  198000    72897    299.62836    1341.2046   -8093574.1    65105.985   -8028468.1    683699.37    1.2087127     69.92166     69.92166    139.84332 
  198100    72897    300.77308    -118.6542   -8093249.9    65354.721   -8027895.2     684029.9    1.2081286    69.932926    69.932926    139.86585 
  198200    72897    301.02113   -473.18057   -8093233.4     65408.62   -8027824.7    684090.75    1.2080211    69.934999    69.934999       139.87 
  198300    72897    300.09387   -317.45072   -8093198.8    65207.136   -8027991.7     683641.6    1.2088148     69.91969     69.91969    139.83938 
  198400    72897    299.75589    331.58283   -8093374.6    65133.696   -8028240.9     683338.2    1.2093515    69.909345    69.909345    139.81869 
  198500    72897    298.64594   -397.46847   -8093417.9    64892.517   -8028525.4       682993    1.2099627    69.897571    69.897571    139.79514 
  198600    72897    299.40769    1161.5172   -8093553.8    65058.035   -8028495.8    682574.85     1.210704    69.883304    69.883304    139.76661 
  198700    72897    299.80684   -928.09155   -8093192.7    65144.766   -8028047.9    682642.34    1.2105843    69.885607    69.885607    139.77121 
  198800    72897    300.81875   0.49463343   -8093183.3    65364.644   -8027818.7     682765.1    1.2103666    69.889796    69.889796    139.77959 
  198900    72897    300.57116     933.6958   -8093165.2    65310.847   -8027854.4    682898.09    1.2101309    69.894333    69.894333    139.78867 
  199000    72897    300.11774    728.94898   -8093539.4    65212.323   -8028327.1    683162.89    1.2096618    69.903366    69.903366    139.80673 
  199100    72897    299.24151    302.62844   -8093526.4    65021.926   -8028504.5    683257.97    1.2094935    69.906609    69.906609    139.81322 
  199200    72897    299.69075    1764.0208   -8093379.9    65119.543   -8028260.4    683420.73    1.2092055     69.91216     69.91216    139.82432 
  199300    72897    301.20221    735.36896   -8093389.9    65447.966     -8027942     683616.9    1.2088585    69.918848    69.918848     139.8377 
  199400    72897    298.39232     674.8634   -8092789.2    64837.407   -8027951.8    683526.65    1.2090181    69.915771    69.915771    139.83154 
  199500    72897    300.25553   -1368.8703   -8093127.2    65242.263     -8027885    683076.74    1.2098144    69.900428    69.900428    139.80086 
  199600    72897    298.70646   -2507.5068   -8093036.7    64905.666     -8028131     682984.8    1.2099773    69.897292    69.897292    139.79458 
  199700    72897    298.34077    667.90614   -8093308.2    64826.206     -8028482    683022.96    1.2099097    69.898593    69.898593    139.79719 
  199800    72897    298.89714    77.832386   -8093327.4    64947.098   -8028380.3    683357.96    1.2093165    69.910019    69.910019    139.82004 
  199900    72897     300.9718    -1250.386   -8093344.9    65397.901     -8027947     683217.5    1.2095651    69.905229    69.905229    139.81046 
  200000    72897    299.20038   -477.94673   -8092863.5     65012.99   -8027850.5    682791.34    1.2103201    69.890691    69.890691    139.78138 
Loop time of 95185.6 on 56 procs for 200000 steps with 72897 atoms

Performance: 0.045 ns/day, 528.809 hours/ns, 2.101 timesteps/s
96.2% CPU use with 56 MPI tasks x no OpenMP threads

MPI task timing breakdown:
Section |  min time  |  avg time  |  max time  |%varavg| %total
---------------------------------------------------------------
Pair    | 44531      | 50397      | 52153      | 690.1 | 52.95
Neigh   | 3473.2     | 3873       | 4076.3     | 239.2 |  4.07
Comm    | 2246       | 3952.5     | 9708       |2469.7 |  4.15
Output  | 8.4839     | 8.4926     | 8.6596     |   0.8 |  0.01
Modify  | 36444      | 36948      | 37458      | 132.2 | 38.82
Other   |            | 6.568      |            |       |  0.01

Nlocal:    1301.73 ave 1399 max 1120 min
Histogram: 1 1 2 3 2 8 12 14 10 3
Nghost:    13372.1 ave 13667 max 12846 min
Histogram: 3 4 2 3 3 5 6 9 12 9
Neighs:    1.25949e+06 ave 1.39389e+06 max 996967 min
Histogram: 1 2 1 3 5 5 6 19 9 5

Total # of neighbors = 70531505
Ave neighs/atom = 967.55
Neighbor list builds = 20000
Dangerous builds not checked
write_restart	restart.npt_equi
unfix npt_equi
undump npt_dump


Please see the log.cite file for references relevant to this simulation

Total wall time: 26:26:59
