LAMMPS (2 Aug 2019)
# two cnt vertical with 10% -OH functionalization
# lammps code to simulate tension test on RVE of nanocomposite with crack
# crack needs to be initiated first
# system is already equilibrated
# delete some atoms from a region to intiate a crack
# no cnt fix in MS equilibration
# load equilibrated structure

read_restart    restart.npt_equi
  restoring atom style charge from restart
  orthogonal box = (0.732057 -1.45172 0.323083) to (70.6046 68.4208 140.068)
  4 by 2 by 7 MPI processor grid
  pair style reax/c stores no restart info
  72085 atoms
  read_restart CPU = 0.213847 secs

# ReaxFF potential to define interatomic interactions

pair_style	reax/c control_file lgvdw yes
pair_coeff	* * ffield.reax.lg C C H O C C C O O C C
Reading potential file ffield.reax.lg with DATE: 2012-01-06

neighbor	4 bin
neigh_modify	every 10 delay 0 check no

thermo 100
thermo_style custom step atoms temp press pe ke etotal vol density lx ly lz      #output variables

compute pnc_temp all temp
compute pnc_pe all pe/atom
compute pnc_stress all stress/atom pnc_temp pair bond
compute pnc_str all reduce sum c_pnc_stress[3]

variable tmpz equal "lz"
variable L0z equal ${tmpz}
variable L0z equal 139.745068197426
variable tmpx equal "lx"
variable L0x equal ${tmpx}
variable L0x equal 69.8725340987131
variable tmpy equal "ly"
variable L0y equal ${tmpy}
variable L0y equal 69.872534098713

# define groups of atoms to delete

fix std all qeq/reax 1 0.0 10.0 1e-6 reax/c

region atoms_for_deletion block EDGE 20.0 EDGE EDGE 68.7840415 71.2840415             # NOTE: box size will change after equilibration
delete_atoms region atoms_for_deletion
Deleted 354 atoms, new total = 71731
reset_ids
Resetting atom IDs ...
Unused restart file global fix info:
  fix style: npt, fix ID: npt_equi
Neighbor list info ...
  update every 10 steps, delay 0 steps, check no
  max neighbors/atom: 2000, page size: 100000
  master list distance cutoff = 14
  ghost atom cutoff = 14
  binsize = 7, bins = 10 10 20
  2 neighbor lists, perpetual/occasional/extra = 2 0 0
  (1) pair reax/c, perpetual
      attributes: half, newton off, ghost
      pair build: half/bin/newtoff/ghost
      stencil: half/ghost/bin/3d/newtoff
      bin: standard
  (2) fix qeq/reax, perpetual, copy from (1)
      attributes: half, newton off, ghost
      pair build: copy
      stencil: none
      bin: none

reset_timestep 0
timestep 0.25
thermo_style custom step atoms temp press pe ke etotal vol density lx ly lz
fix 1 all npt temp 300.0 300.0 25.0 x 0.0 0.0 250.0 y 0.0 0.0 250.0 couple xy
fix 2 all deform 1 z erate 0.00001 units box
fix bd all reax/c/bonds 1000 bonds.reaxc
dump deform1 all custom 1000 dump.deform id type x y z

variable strainz equal "(lz-v_L0z)/v_L0z"
variable strainx equal "(lx-v_L0x)/v_L0x"
variable strainy equal "(ly-v_L0y)/v_L0y"
variable stressz equal "-pzz/10000"
variable p1 equal "v_stressz"
variable p2 equal "v_strainz"
variable p3 equal "v_strainx"
variable p4 equal "v_strainy"
fix 3 all print 100 "${p1} ${p2} ${p3} ${p4}" file pmma_pnc_crack.txt screen no

run 400000
Per MPI rank memory allocation (min/avg/max) = 304.4 | 326.6 | 345.8 Mbytes
Step Atoms Temp Press PotEng KinEng TotEng Volume Density Lx Ly Lz 
       0    71731    297.44525   -267.52356   -7950531.4    63597.812   -7886933.6    682259.32    1.1935048    69.872534    69.872534    139.74507 
     100    71731    305.38079    547.44381   -7952822.1    65294.537   -7887527.6    682506.87     1.193072    69.876475    69.876475       139.78 
     200    71731    305.68175    63.590272     -7953841    65358.885   -7888482.1    682295.94    1.1934408    69.856947    69.856947    139.81494 
     300    71731    302.90257   -1508.6897   -7954377.3    64764.659   -7889612.7    682489.41    1.1931025    69.858123    69.858123    139.84988 
     400    71731    301.12027   -624.18931   -7954938.6     64383.58     -7890555    682458.88    1.1931558    69.847837    69.847837    139.88481 
     500    71731    300.56536    87.732941   -7955535.8    64264.934   -7891270.9     682440.7    1.1931876    69.838186    69.838186    139.91975 
     600    71731    298.92858   -484.42928   -7955724.7    63914.967   -7891809.7    682739.65    1.1926652    69.844762    69.844762    139.95469 
     700    71731    299.41273   -519.70368     -7956058    64018.485   -7892039.5    682703.28    1.1927287    69.834186    69.834186    139.98962 
     800    71731    299.65911    611.31547   -7956074.6    64071.166   -7892003.5     682085.9    1.1938083    69.793894    69.793894    140.02456 
     900    71731    300.64781   -325.69947   -7956206.4    64282.562   -7891923.9    681325.77    1.1951402    69.746293    69.746293    140.05949 
    1000    71731     300.0516   -651.73254   -7956118.9    64155.085   -7891963.8    681221.07    1.1953239    69.732237    69.732237    140.09443 
    1100    71731    301.62252    517.09517   -7956588.3    64490.968   -7892097.3     681090.4    1.1955532    69.716857    69.716857    140.12937 
    1200    71731    299.41894    651.13539     -7956558    64019.813   -7892538.1     681104.9    1.1955277     69.70891     69.70891     140.1643 
    1300    71731    300.09187    374.15069     -7956965    64163.693   -7892801.3    681207.44    1.1953478     69.70547     69.70547    140.19924 
    1400    71731    299.13488   -1494.4579   -7957034.9    63959.077   -7893075.8    681209.08    1.1953449    69.696871    69.696871    140.23418 
    1500    71731    299.66373    966.50112   -7957115.2    64072.153     -7893043    680971.78    1.1957615    69.676052    69.676052    140.26911 
    1600    71731    299.24208   -722.41605   -7956732.4    63981.997   -7892750.5    680844.68    1.1959847    69.660875    69.660875    140.30405 
    1700    71731    300.33439    594.22668   -7956617.5    64215.549     -7892402    680847.02    1.1959806    69.652323    69.652323    140.33898 
    1800    71731    300.78139   -1091.6834   -7956763.2    64311.124   -7892452.1    680923.94    1.1958455    69.647589    69.647589    140.37392 
    1900    71731    298.50447    415.05638   -7956865.4    63824.287   -7893041.1    680356.14    1.1968435    69.609883    69.609883    140.40886 
    2000    71731    300.07664   -273.95702   -7957216.1    64160.438   -7893055.6     680444.5    1.1966881    69.605744    69.605744    140.44379 
    2100    71731    300.83261   -1147.2039   -7957285.1    64322.074     -7892963    680656.92    1.1963146     69.60795     69.60795    140.47873 
    2200    71731    300.19147   -960.79303   -7957162.1     64184.99   -7892977.1    680816.14    1.1960348    69.607436    69.607436    140.51367 
    2300    71731    299.83387   -1463.5756   -7957406.6    64108.531   -7893298.1    680898.89    1.1958895    69.603014    69.603014     140.5486 
    2400    71731    299.06241     1920.763   -7957565.7    63943.582   -7893622.1    681005.79    1.1957017    69.599828    69.599828    140.58354 
    2500    71731    299.80989   -180.48686   -7957781.8    64103.404   -7893678.4     681276.1    1.1952273    69.604991    69.604991    140.61847 
    2600    71731    300.00392   -382.15231   -7957959.2     64144.89   -7893814.3    681404.43    1.1950022    69.602901    69.602901    140.65341 
    2700    71731    298.61154    230.55808   -7957894.2     63847.18     -7894047    681906.37    1.1941226    69.619886    69.619886    140.68835 
    2800    71731    300.28884    736.47145   -7957911.5     64205.81   -7893705.7    682269.05    1.1934878    69.629753    69.629753    140.72328 
    2900    71731    301.15497    556.50491     -7957711    64391.001     -7893320    682502.78    1.1930791    69.633036    69.633036    140.75822 
    3000    71731    300.42933   -166.02179   -7957519.2    64235.849   -7893283.3    682720.86     1.192698    69.635519    69.635519    140.79316 
    3100    71731    299.23418   -1156.9241   -7957412.6     63980.31   -7893432.3    683160.36    1.1919307    69.649288    69.649288    140.82809 
    3200    71731     297.2098   -589.49357   -7957370.8     63547.47   -7893823.3    683482.54    1.1913688     69.65707     69.65707    140.86303 
    3300    71731    299.74586   -1107.1234   -7958267.1    64089.713   -7894177.4     683961.4    1.1905347    69.672828    69.672828    140.89797 
    3400    71731    297.62471   -243.89364   -7958145.7    63636.183   -7894509.5     684117.9    1.1902624    69.672161    69.672161     140.9329 
    3500    71731    298.68464   -235.10383   -7957765.5    63862.809   -7893902.7    684199.51    1.1901204    69.667682    69.667682    140.96784 
    3600    71731    300.18481    -719.9648   -7957680.7    64183.567   -7893497.1    684175.39    1.1901624    69.657823    69.657823    141.00277 
    3700    71731     301.8227    -1174.534   -7957700.2     64533.77   -7893166.4     684124.9    1.1902502    69.646625    69.646625    141.03771 
    3800    71731    301.11502   -1929.8965   -7957715.3    64382.457   -7893332.8    684190.44    1.1901362    69.641336    69.641336    141.07265 
    3900    71731    299.78751   -811.36033     -7957810    64098.617   -7893711.3    684236.91    1.1900554    69.635079    69.635079    141.10758 
    4000    71731    299.51274    520.51487     -7957937    64039.868   -7893897.1    684490.58    1.1896143    69.639365    69.639365    141.14252 
    4100    71731    301.02064    -498.9601   -7958138.2    64362.278   -7893775.9    684351.83    1.1898555    69.623691    69.623691    141.17746 
    4200    71731    301.12309   -884.91373   -7957780.5    64384.183   -7893396.4    684225.89    1.1900745    69.608672    69.608672    141.21239 
    4300    71731    301.46454   -1696.1863     -7957523    64457.191   -7893065.8    684153.15    1.1902011    69.596363    69.596363    141.24733 
    4400    71731    300.55399   -1232.3754   -7957752.3    64262.502   -7893489.8     684249.8    1.1900329    69.592673    69.592673    141.28226 
    4500    71731    301.08156   -195.84157   -7958119.7    64375.304   -7893744.4    684062.14    1.1903594    69.574527    69.574527     141.3172 
    4600    71731    299.91052   -586.70342   -7958100.4     64124.92   -7893975.5    683864.08    1.1907042    69.555857    69.555857    141.35214 
    4700    71731    298.68596   -1444.2053   -7958054.4    63863.092   -7894191.3    684043.09    1.1903926    69.556365    69.556365    141.38707 
    4800    71731    299.41154   -743.01623   -7958147.7     64018.23   -7894129.5    683801.68    1.1908128      69.5355      69.5355    141.42201 
    4900    71731     301.6692   -1366.3729   -7958277.1    64500.949   -7893776.1    683375.08    1.1915562    69.505221    69.505221    141.45695 
    5000    71731    301.09949   -980.90996   -7957943.1    64379.138     -7893564    682850.05    1.1924723    69.469938    69.469938    141.49188 
    5100    71731    299.43846    112.74251   -7958049.7    64023.986   -7894025.7    682704.23    1.1927271    69.453946    69.453946    141.52682 
    5200    71731    300.02038   -1243.4193   -7958440.5     64148.41   -7894292.1    683102.81    1.1920311    69.465644    69.465644    141.56175 
    5300    71731    300.18754   -12.658672     -7958431     64184.15   -7894246.9    682998.76    1.1922127    69.451784    69.451784    141.59669 
    5400    71731    299.87214   -737.68922   -7958225.9    64116.714   -7894109.2    683071.23    1.1920862    69.446902    69.446902    141.63163 
    5500    71731    301.62722   -370.32751   -7958223.6    64491.973   -7893731.6    683308.19    1.1916728    69.450381    69.450381    141.66656 
    5600    71731    300.40419   -1354.9656     -7957898    64230.474   -7893667.5    684075.77    1.1903357    69.480811    69.480811     141.7015 
    5700    71731    298.95756   -1030.0297   -7958063.2    63921.165     -7894142    684822.14    1.1890384    69.510137    69.510137    141.73644 
    5800    71731    298.48324    720.69294   -7958130.6    63819.747   -7894310.8    685157.53    1.1884563    69.518588    69.518588    141.77137 
    5900    71731    301.10479   -1238.1593   -7958565.6    64380.271   -7894185.3    685121.77    1.1885184    69.508211    69.508211    141.80631 
    6000    71731    300.18725    -210.1127   -7958183.1    64184.089     -7893999    685293.61    1.1882203    69.508365    69.508365    141.84124 
    6100    71731     301.6946    276.69754   -7958082.5     64506.38   -7893576.2    685320.44    1.1881738    69.501167    69.501167    141.87618 
    6200    71731    301.50934    576.14932   -7957897.2    64466.768   -7893430.4    685180.74    1.1884161    69.485529    69.485529    141.91112 
    6300    71731    300.09813    616.89088   -7958068.3    64165.033   -7893903.3    684560.34    1.1894931    69.445516    69.445516    141.94605 
    6400    71731    300.60026    202.80971   -7958453.6    64272.396   -7894181.2     684496.2    1.1896046    69.433718    69.433718    141.98099 
    6500    71731    298.72288   -544.08191   -7958183.5    63870.986   -7894312.5    685108.65    1.1885411    69.456229    69.456229    142.01593 
    6600    71731    299.24419     752.7321   -7958317.5    63982.449   -7894335.1    684895.38    1.1889112    69.436877    69.436877    142.05086 
    6700    71731    299.83055   -2364.3142   -7958290.4    64107.822   -7894182.5    685143.21    1.1884812      69.4409      69.4409     142.0858 
    6800    71731    302.01182    519.45402   -7958316.8    64574.206   -7893742.6    684754.32    1.1891561    69.412657    69.412657    142.12073 
    6900    71731    300.07454    968.78977   -7957828.9     64159.99   -7893668.9    684552.57    1.1895066    69.393902    69.393902    142.15567 
    7000    71731    300.87493   -1748.0562   -7958289.6    64331.124   -7893958.5    684602.17    1.1894204     69.38789     69.38789    142.19061 
    7100    71731    300.06765    237.84661   -7958564.9    64158.516   -7894406.4    684573.09     1.189471    69.377894    69.377894    142.22554 
    7200    71731    299.79199   -1225.0874   -7958478.7    64099.577   -7894379.1    684782.02     1.189108    69.379959    69.379959    142.26048 
    7300    71731    300.11468    1944.8138   -7958389.2    64168.572   -7894220.6    684398.18    1.1897749    69.351997    69.351997    142.29542 
    7400    71731    301.48229    277.12926   -7958550.6    64460.986   -7894089.6     684617.6    1.1893936      69.3546      69.3546    142.33035 
    7500    71731    301.37688   -772.25995   -7958528.8    64438.447   -7894090.3    685142.59    1.1884822    69.372673    69.372673    142.36529 
    7600    71731    300.12217   -1119.0128   -7958556.5    64170.172   -7894386.3    685327.82     1.188161    69.373538    69.373538    142.40022 
    7700    71731    299.12681   -725.86367   -7958586.4    63957.352     -7894629    685422.93    1.1879962    69.369843    69.369843    142.43516 
    7800    71731    298.41247    383.60191   -7958266.1    63804.616   -7894461.5    685955.02    1.1870746    69.388254    69.388254     142.4701 
    7900    71731    300.69299    296.62649   -7958267.5    64292.222   -7893975.2     686142.7    1.1867499    69.389238    69.389238    142.50503 
    8000    71731    300.25333    674.83933   -7958182.7    64198.217   -7893984.5    685915.26    1.1871434    69.369235    69.369235    142.53997 
    8100    71731    299.86554   -1128.1068   -7958303.5    64115.302   -7894188.2    685995.08    1.1870053     69.36477     69.36477    142.57491 
    8200    71731    299.02098   -2102.9137   -7958339.9    63934.724   -7894405.2    686177.04    1.1866906    69.365471    69.365471    142.60984 
    8300    71731    298.83392   -105.04383     -7958359    63894.728   -7894464.3    686133.06    1.1867666    69.354754    69.354754    142.64478 
    8400    71731    300.51367    442.13296   -7958308.7     64253.88   -7894054.9    686214.51    1.1866257    69.350378    69.350378    142.67971 
    8500    71731    299.75109   -782.57889   -7957994.8     64090.83     -7893904     686216.4    1.1866225    69.341985    69.341985    142.71465 
    8600    71731    300.67049    -55.82095   -7958538.2    64287.411   -7894250.7    686146.96    1.1867426    69.329991    69.329991    142.74959 
    8700    71731    298.81347    781.80563   -7958493.5    63890.354   -7894603.2    686360.52    1.1863733    69.332295    69.332295    142.78452 
    8800    71731    301.01906      1755.73   -7958830.2     64361.94   -7894468.2    687000.32    1.1852684    69.356118    69.356118    142.81946 
    8900    71731    300.06777   -674.23988   -7958337.1    64158.542   -7894178.6    687396.83    1.1845848    69.367646    69.367646     142.8544 
    9000    71731    300.24243   -28.903089   -7958185.3    64195.887   -7893989.4    687792.96    1.1839025    69.379148    69.379148    142.88933 
    9100    71731    300.29042   -584.07251   -7958299.6    64206.147   -7894093.5    687662.56     1.184127    69.364091    69.364091    142.92427 
    9200    71731    300.08914    -559.9915   -7958356.2    64163.111   -7894193.1    687591.79    1.1842489    69.352046    69.352046     142.9592 
    9300    71731    299.74151   -1211.7043   -7958391.9    64088.782   -7894303.1    687314.69    1.1847263      69.3296      69.3296    142.99414 
    9400    71731    301.23407   -129.69236   -7958691.6    64407.913   -7894283.7    686732.78    1.1857302    69.291781    69.291781    143.02908 
    9500    71731    299.99351    248.84073   -7958490.7    64142.665   -7894348.1    686130.35    1.1867713    69.252923    69.252923    143.06401 
    9600    71731     299.0544     893.0426   -7958638.8     63941.87   -7894696.9    686163.23    1.1867144    69.246129    69.246129    143.09895 
    9700    71731    298.42009   -629.93478     -7958583    63806.246   -7894776.8     686459.7    1.1862019    69.252633    69.252633    143.13389 
    9800    71731    299.97512    130.37176   -7958484.7    64138.733   -7894345.9    686659.43    1.1858569    69.254256    69.254256    143.16882 
    9900    71731     302.0137    233.48367   -7958670.1    64574.608   -7894095.5    687237.41    1.1848596    69.274945    69.274945    143.20376 
   10000    71731    300.52888   -871.11397   -7958523.9    64257.134   -7894266.8    687465.09    1.1844671    69.277969    69.277969    143.23869 
   10100    71731    298.81179   -526.20729   -7958354.5    63889.996   -7894464.6    687018.26    1.1852375    69.247007    69.247007    143.27363 
   10200    71731    299.68303    901.88216   -7958485.1    64076.279   -7894408.8    686753.67    1.1856941    69.225232    69.225232    143.30857 
   10300    71731    300.58106    1457.8975   -7958567.7    64268.289   -7894299.4    687226.04    1.1848791    69.240596    69.240596     143.3435 
   10400    71731     300.7683   -1234.0058     -7958471    64308.324   -7894162.7    687435.43    1.1845182    69.242706    69.242706    143.37844 
   10500    71731    300.72884    160.16907   -7958516.4    64299.887   -7894216.5    687644.77    1.1841576    69.244812    69.244812    143.41338 
   10600    71731    299.44977    0.6040757   -7958674.8    64026.405   -7894648.4    687611.33    1.1842152    69.234696    69.234696    143.44831 
   10700    71731    297.29864   -271.11173   -7958327.5    63566.463     -7894761    687469.62    1.1844593    69.219133    69.219133    143.48325 
   10800    71731    301.14663    -1031.137   -7958825.2    64389.217     -7894436    687388.85    1.1845985    69.206641    69.206641    143.51819 
   10900    71731    301.18088   -253.50692   -7958637.3     64396.54   -7894240.7    687803.87    1.1838837    69.219106    69.219106    143.55312 
   11000    71731     298.1168   -676.50822   -7958003.4    63741.399     -7894262    687868.23     1.183773    69.213923    69.213923    143.58806 
   11100    71731    300.78717   -736.21813   -7958507.6     64312.36   -7894195.3    687835.18    1.1838298    69.203842    69.203842    143.62299 
   11200    71731    300.71475   -1209.3632   -7958504.5    64296.875   -7894207.6     687980.8    1.1835793    69.202751    69.202751    143.65793 
   11300    71731    299.51329   -539.71217   -7958769.7    64039.987   -7894729.7    688535.65    1.1826255    69.222234    69.222234    143.69287 
   11400    71731     298.4587   -1688.5223     -7958766      63814.5   -7894951.5     688833.9    1.1821134     69.22881     69.22881     143.7278 
   11500    71731    299.18548   -36.790363   -7958522.1    63969.897   -7894552.2    688718.12    1.1823122    69.214579    69.214579    143.76274 
   11600    71731    301.11698    544.18192   -7958576.6    64382.877   -7894193.7     688412.9    1.1828363    69.190835    69.190835    143.79768 
   11700    71731    299.85545   -420.96479   -7958160.1    64113.144     -7894047    688097.56    1.1833784    69.166584    69.166584    143.83261 
   11800    71731    300.12345   -1266.5466     -7958283    64170.448   -7894112.5    688162.67    1.1832665    69.161457    69.161457    143.86755 
   11900    71731    300.02712    634.82913   -7958711.9    64149.851     -7894562    688064.56    1.1834352    69.148131    69.148131    143.90248 
   12000    71731    299.57551   -1576.1689   -7958741.2     64053.29   -7894687.9    688608.09    1.1825011    69.167042    69.167042    143.93742 
   12100    71731    300.36625    -286.1318   -7958719.8     64222.36   -7894497.4    688610.91    1.1824962    69.158791    69.158791    143.97236 
   12200    71731    300.08219   -909.38338   -7958464.2    64161.625   -7894302.6     688948.3    1.1819171     69.16734     69.16734    144.00729 
   12300    71731    300.26163    -472.5515   -7958390.7    64199.992   -7894190.7    689222.62    1.1814467    69.172718    69.172718    144.04223 
   12400    71731    299.68714   -694.31209   -7958277.5    64077.158   -7894200.3    689038.41    1.1817626    69.155088    69.155088    144.07717 
   12500    71731    299.57365   -677.79223   -7958116.1    64052.892   -7894063.2    689191.05    1.1815008    69.154364    69.154364     144.1121 
   12600    71731    300.96861   -728.72529   -7957982.4    64351.153   -7893631.2    689068.81    1.1817104    69.139851    69.139851    144.14704 
   12700    71731    301.91877    -914.8958   -7958015.9    64554.311   -7893461.5    688533.01      1.18263    69.104591    69.104591    144.18197 
   12800    71731    299.25229   -1463.9142   -7958055.6     63984.18   -7894071.4    688631.01    1.1824617    69.101137    69.101137    144.21691 
   12900    71731    299.35883   -1249.9838   -7958308.8     64006.96   -7894301.8     688419.8    1.1828245    69.082172    69.082172    144.25185 
   13000    71731     299.4436   -759.76364     -7958448    64025.086   -7894422.9    688539.94    1.1826181    69.079835    69.079835    144.28678 
   13100    71731    301.75694    510.39643   -7958851.8     64519.71   -7894332.1    688721.77    1.1823059    69.080593    69.080593    144.32172 
   13200    71731    300.61635   -556.78736   -7958286.4    64275.836   -7894010.5    689216.89    1.1814565    69.097057    69.097057    144.35666 
   13300    71731    301.81295   -372.91237   -7958375.2    64531.684   -7893843.6    689587.22    1.1808221    69.107256    69.107256    144.39159 
   13400    71731    298.20306   -1697.6965   -7958101.5    63759.842   -7894341.7    689878.39    1.1803237    69.113484    69.113484    144.42653 
   13500    71731    300.08712   -1040.7433   -7958577.8    64162.679   -7894415.1    690205.09     1.179765    69.121487    69.121487    144.46146 
   13600    71731    299.68929   -557.51861   -7958357.6    64077.617     -7894280     690174.3    1.1798176    69.111589    69.111589     144.4964 
   13700    71731    300.18574   -199.87312   -7958326.9    64183.764   -7894143.2    690008.72    1.1801008    69.094945    69.094945    144.53134 
   13800    71731    300.26758   -444.55902   -7958397.9    64201.265   -7894196.6    690447.41    1.1793509    69.108555    69.108555    144.56627 
   13900    71731    299.43798   -764.12576     -7958337    64023.885   -7894313.1    690407.23    1.1794196    69.098195    69.098195    144.60121 
   14000    71731     298.3163   -1491.9271   -7958294.2    63784.054   -7894510.2     690031.7    1.1800614    69.071057    69.071057    144.63615 
   14100    71731    299.43825    507.93486   -7958531.4    64023.941   -7894507.4    689648.61     1.180717    69.043543    69.043543    144.67108 
   14200    71731     300.1878   -65.761254   -7958405.5    64184.205   -7894221.3    689008.23    1.1818143    69.003149    69.003149    144.70602 
   14300    71731    300.11787   -2166.8336   -7958024.5    64169.255   -7893855.2    688858.32    1.1820715    68.987314    68.987314    144.74095 
   14400    71731    300.81974   -522.65696   -7958116.5    64319.323   -7893797.2    689029.05    1.1817786    68.987538    68.987538    144.77589 
   14500    71731    300.78704   -1022.0021   -7958626.7    64312.331   -7894314.4    689275.43    1.1813562    68.991547    68.991547    144.81083 
   14600    71731    300.20296   -1956.1438   -7958660.1    64187.447   -7894472.6    689881.32    1.1803187    69.013538    69.013538    144.84576 
   14700    71731    300.34562    183.23738   -7958523.4    64217.949   -7894305.4    689718.35    1.1805976    68.997066    68.997066     144.8807 
   14800    71731    300.55542   -764.48557   -7958317.6    64262.807   -7894054.7    690119.13     1.179912    69.008789    69.008789    144.91564 
   14900    71731     301.3198   -748.61438     -7958221    64426.243   -7893794.8    690250.15     1.179688    69.007023    69.007023    144.95057 
   15000    71731    300.33884   -1413.8064   -7958178.7      64216.5   -7893962.2    690317.99     1.179572    69.002099    69.002099    144.98551 
   15100    71731    299.04961   -659.21457   -7958441.7    63940.846   -7894500.8    690079.84    1.1799791    68.981885    68.981885    145.02044 
   15200    71731    299.51005     827.2588   -7958635.4    64039.293   -7894596.1    690333.17    1.1795461    68.986236    68.986236    145.05538 
   15300    71731    298.82424   -771.67445   -7958514.8    63892.658   -7894622.1    690480.56    1.1792943    68.985293    68.985293    145.09032 
   15400    71731    300.04177    84.890471   -7958370.9    64152.982   -7894217.9    690553.11    1.1791704    68.980613    68.980613    145.12525 
   15500    71731    300.83244   -73.821864     -7958189    64322.037     -7893867    690795.24    1.1787571    68.984402    68.984402    145.16019 
   15600    71731    300.13109   -1704.0882     -7958133     64172.08   -7893960.9     690935.9    1.1785171    68.983124    68.983124    145.19513 
   15700    71731    299.75734    477.65579   -7958305.2    64092.168   -7894213.1    690991.67     1.178422    68.977611    68.977611    145.23006 
   15800    71731     298.8677    -2334.495   -7958229.7    63901.949   -7894327.8    691269.91    1.1779477      68.9832      68.9832      145.265 
   15900    71731    301.67768    240.14409   -7958271.1    64502.763   -7893768.3    691572.08     1.177433    68.989979    68.989979    145.29993 
   16000    71731    302.43626   -320.68443   -7958290.7    64664.958   -7893625.7    691863.31    1.1769374     68.99621     68.99621    145.33487 
   16100    71731     300.5899   -274.98562   -7958168.3    64270.181   -7893898.1    691844.03    1.1769702    68.986957    68.986957    145.36981 
   16200    71731    298.97299   -165.47279   -7958017.4    63924.462   -7894092.9     691607.6    1.1773725    68.966882    68.966882    145.40474 
   16300    71731    299.31626   -1666.9423   -7958185.1     63997.86   -7894187.2    691843.26    1.1769715    68.970346    68.970346    145.43968 
   16400    71731    299.10566    565.94106   -7958269.3    63952.829   -7894316.4    691918.14    1.1768441    68.965795    68.965795    145.47462 
   16500    71731    299.01661   -381.52812   -7958571.4     63933.79   -7894637.6    692042.03    1.1766334    68.963689    68.963689    145.50955 
   16600    71731    298.79538   -1405.7595   -7958304.2    63886.487   -7894417.7    691586.74    1.1774081    68.932725    68.932725    145.54449 
   16700    71731    299.03296   -567.83648   -7957945.2    63937.286   -7894007.9    691344.91    1.1778199    68.912402    68.912402    145.57942 
   16800    71731    301.33916    -1009.872   -7958313.2    64430.381   -7893882.8    691242.91    1.1779937    68.899051    68.899051    145.61436 
   16900    71731    300.58802   -1827.0501   -7958264.4    64269.777   -7893994.6    691284.91    1.1779221     68.89288     68.89288     145.6493 
   17000    71731    298.93597   -789.04561   -7958372.7    63916.547   -7894456.1    691468.42    1.1776095    68.893762    68.893762    145.68423 
   17100    71731    298.89997    817.40622     -7958482    63908.851   -7894573.1    691547.02    1.1774757    68.889418    68.889418    145.71917 
   17200    71731    300.38463    610.03754   -7958591.8    64226.291   -7894365.5    691594.92    1.1773941    68.883546    68.883546    145.75411 
   17300    71731    300.08096   -1883.1289     -7958242    64161.362   -7894080.7    692196.16    1.1763715    68.905224    68.905224    145.78904 
   17400    71731    301.02199   -945.89155   -7958269.7    64362.567   -7893907.2    693100.15    1.1748372    68.941944    68.941944    145.82398 
   17500    71731    301.47837    -987.6173   -7958393.7    64460.147   -7893933.6    693180.15    1.1747016    68.937665    68.937665    145.85891 
   17600    71731    298.48897   -1372.3705   -7957935.9    63820.973   -7894114.9    692929.66    1.1751262    68.916955    68.916955    145.89385 
   17700    71731    297.62992   -1187.4204   -7958207.6    63637.297   -7894570.3    692989.56    1.1750246    68.911683    68.911683    145.92879 
   17800    71731    298.41274     686.1813   -7958559.6    63804.674   -7894754.9    692825.86    1.1753023    68.895297    68.895297    145.96372 
   17900    71731    299.36008   -286.08186   -7958355.8    64007.229   -7894348.5    692327.65     1.176148    68.862281    68.862281    145.99866 
   18000    71731    300.18273    99.981479   -7958211.9    64183.121   -7894028.8    692280.01     1.176229    68.851674    68.851674     146.0336 
   18100    71731    300.80537   -17.032053   -7958294.2     64316.25   -7893977.9    692148.97    1.1764517    68.836924    68.836924    146.06853 
   18200    71731     299.0678   -748.84154   -7958164.6    63944.735   -7894219.9    691881.77     1.176906    68.815407    68.815407    146.10347 
   18300    71731    299.99972    822.82808   -7958601.7    64143.992   -7894457.7    691610.67    1.1773673    68.793699    68.793699    146.13841 
   18400    71731    299.82738     328.5768   -7958510.2    64107.144     -7894403     691750.3    1.1771297     68.79242     68.79242    146.17334 
   18500    71731    300.48937   -33.078844   -7958045.3    64248.686   -7893796.6    691991.79    1.1767189    68.796206    68.796206    146.20828 
   18600    71731    300.51471   -702.42309   -7957995.4    64254.103   -7893741.3    691703.21    1.1772098    68.773644    68.773644    146.24321 
   18700    71731    301.70547   -1819.7924     -7958611    64508.703   -7894102.3    691859.36    1.1769441    68.773192    68.773192    146.27815 
   18800    71731    299.61621    -722.0821   -7958453.4    64061.992   -7894391.4     691956.5    1.1767789    68.769808    68.769808    146.31309 
   18900    71731     298.2358   -868.70998   -7958204.1    63766.842   -7894437.2    692356.14    1.1760996    68.781453    68.781453    146.34802 
   19000    71731    299.26471   -969.52599   -7958067.9    63986.836     -7894081    692771.24    1.1753949    68.793858    68.793858    146.38296 
   19100    71731    301.30276   -239.79058   -7958239.7      64422.6   -7893817.1    693394.91    1.1743377    68.816605    68.816605     146.4179 
   19200    71731    300.73362   -823.54281   -7958169.8    64300.908   -7893868.9    693714.44    1.1737968    68.824249    68.824249    146.45283 
   19300    71731    299.23229    788.54787   -7958140.7    63979.906   -7894160.8    693580.83    1.1740229    68.809414    68.809414    146.48777 
   19400    71731    300.24962   -149.33903   -7958537.9    64197.423   -7894340.5    693965.81    1.1733716    68.820302    68.820302     146.5227 
   19500    71731    299.47549   -1270.0705   -7958303.6    64031.905   -7894271.7    694516.06     1.172442    68.839374    68.839374    146.55764 
   19600    71731    300.70872   -103.45959   -7958358.3    64295.586   -7894062.8    694495.21    1.1724772    68.830138    68.830138    146.59258 
   19700    71731    300.12822   -1145.1248   -7958181.3    64171.466   -7894009.8    694207.39    1.1729633    68.807675    68.807675    146.62751 
   19800    71731    301.12366   -376.10548   -7958345.8    64384.305   -7893961.5    694165.97    1.1730333    68.797427    68.797427    146.66245 
   19900    71731    301.03393    -394.2823   -7958508.2    64365.119     -7894143    694174.47     1.173019    68.789655    68.789655    146.69739 
   20000    71731    298.87969    -1513.244   -7958344.6    63904.513   -7894440.1    693957.27    1.1733861    68.770704    68.770704    146.73232 
   20100    71731    300.16107   -85.908158   -7958441.7    64178.489   -7894263.2    694137.81    1.1730809    68.771462    68.771462    146.76726 
   20200    71731    301.05397   -1135.3383   -7958168.8    64369.405   -7893799.4    694000.87    1.1733124    68.756496    68.756496    146.80219 
   20300    71731    301.79306   -1848.9105     -7958013    64527.432   -7893485.5       694090    1.1731617     68.75273     68.75273    146.83713 
   20400    71731    301.30646   -1043.5665   -7958089.5    64423.389   -7893666.1    694489.49    1.1724869    68.764333    68.764333    146.87207 
   20500    71731    299.64534    178.61256   -7957900.4     64068.22   -7893832.1    694337.71    1.1727432    68.748643    68.748643      146.907 
   20600    71731    300.90309   -1229.6694   -7958434.7    64337.145   -7894097.6    694652.55    1.1722116    68.756053    68.756053    146.94194 
   20700    71731    299.43635    613.94001   -7958374.1    64023.535   -7894350.6    694343.05    1.1727341    68.732563    68.732563    146.97688 
   20800    71731    298.57145   -813.78922   -7958248.6    63838.609     -7894410    694359.93    1.1727056    68.725232    68.725232    147.01181 
   20900    71731    299.63174   -1192.7467   -7958098.3    64065.313     -7894033    693585.27    1.1740154    68.678724    68.678724    147.04675 
   21000    71731    301.66568   -904.60868   -7958077.9    64500.196   -7893577.7    693672.58    1.1738676    68.674889    68.674889    147.08168 
   21100    71731    300.89545   -1281.8399   -7958118.1     64335.51   -7893782.6     693830.3    1.1736008     68.67454     68.67454    147.11662 
   21200    71731    300.84167   -2527.9711   -7958415.1    64324.012   -7894091.1    694053.85    1.1732228    68.677449    68.677449    147.15156 
   21300    71731    300.10839   -449.35132   -7958292.1    64167.227   -7894124.9    694082.95    1.1731736    68.670737    68.670737    147.18649 
   21400    71731    299.94176   -1861.8296   -7958272.2    64131.598   -7894140.6    694249.25    1.1728926    68.670814    68.670814    147.22143 
   21500    71731    298.98762    -447.5567   -7958084.5     63927.59   -7894156.9    694359.89    1.1727057    68.668138    68.668138    147.25637 
   21600    71731    299.76412   -525.31871   -7957958.3    64093.617   -7893864.7    694610.42    1.1722827     68.67238     68.67238     147.2913 
   21700    71731    301.41557   -832.20274   -7958020.2    64446.719   -7893573.5    695083.23    1.1714853    68.687602    68.687602    147.32624 
   21800    71731    301.66871   -232.28497   -7958053.6    64500.844   -7893552.8    695022.02    1.1715885    68.676436    68.676436    147.36117 
   21900    71731    299.50224   -913.04278   -7958041.5    64037.624   -7894003.9    695118.06    1.1714266     68.67304     68.67304    147.39611 
   22000    71731    298.57943   -2158.0821   -7957999.1    63840.315   -7894158.8    695046.48    1.1715473    68.661368    68.661368    147.43105 
   22100    71731    301.78965   -652.31919   -7958516.7    64526.704     -7893990    694838.62    1.1718977    68.642967    68.642967    147.46598 
   22200    71731    300.15054   -657.08794   -7958288.9     64176.24   -7894112.6     694663.1    1.1721938    68.626168    68.626168    147.50092 
   22300    71731     298.5065    688.89253   -7958234.1     63824.72   -7894409.4    694643.97    1.1722261    68.617098    68.617098    147.53586 
   22400    71731    296.94132   -656.36639   -7958053.2    63490.065   -7894563.1    694993.96    1.1716358    68.626257    68.626257    147.57079 
   22500    71731    300.72776   -822.58947   -7958366.8    64299.657   -7894067.1    695128.22    1.1714095    68.624762    68.624762    147.60573 
   22600    71731    299.46273   -482.63533   -7957888.2    64029.176     -7893859    695589.42    1.1706328    68.639401    68.639401    147.64066 
   22700    71731    299.95032   -276.31031   -7958031.3     64133.43   -7893897.9    695883.29    1.1701385    68.645778    68.645778     147.6756 
   22800    71731    299.80655   -1046.4412   -7958389.7    64102.689     -7894287    696299.24    1.1694395     68.65817     68.65817    147.71054 
   22900    71731    298.56096   -461.95134   -7958359.4    63836.366   -7894523.1    696147.28    1.1696947     68.64256     68.64256    147.74547 
   23000    71731    298.54547   -1351.5673   -7958086.5    63833.054   -7894253.5    695888.89    1.1701291    68.621707    68.621707    147.78041 
   23100    71731     300.4557    335.90406   -7958126.3    64241.487   -7893884.8    695900.22      1.17011    68.614156    68.614156    147.81535 
   23200    71731    300.65802   -694.30353   -7958030.1    64284.744   -7893745.3    696583.78    1.1689618    68.639735    68.639735    147.85028 
   23300    71731    299.92157   -347.16232   -7958009.1    64127.283   -7893881.9    696468.72    1.1691549    68.625959    68.625959    147.88522 
   23400    71731    298.32621   -1129.7487   -7958020.6    63786.172   -7894234.4    696248.54    1.1695246    68.607007    68.607007    147.92015 
   23500    71731    298.69395    402.48849   -7958381.8    63864.801     -7894517    696556.76    1.1690071    68.614088    68.614088    147.95509 
   23600    71731    299.39488    -631.2967   -7958547.7    64014.669   -7894533.1    696327.51     1.169392    68.594698    68.594698    147.99003 
   23700    71731    300.40478    -193.0515     -7958151      64230.6   -7893920.4    696552.54    1.1690142    68.597685    68.597685    148.02496 
   23800    71731    300.14467   -57.111762   -7957936.5    64174.983   -7893761.5    696705.57    1.1687574    68.597125    68.597125     148.0599 
   23900    71731    300.57919   -636.50752   -7958200.9    64267.889     -7893933    696747.46    1.1686872    68.591096    68.591096    148.09484 
   24000    71731    300.29233   -807.68859   -7958390.7    64206.555   -7894184.2    696848.82    1.1685172    68.587995    68.587995    148.12977 
   24100    71731    299.76981   -833.85678   -7958350.7    64094.835   -7894255.8    696945.92    1.1683544    68.584686    68.584686    148.16471 
   24200    71731    299.71536   -340.10535   -7957988.4    64083.192   -7893905.2    697090.25    1.1681125    68.583702    68.583702    148.19964 
   24300    71731    300.34842   -1211.1893   -7957679.4    64218.549   -7893460.9    697392.13    1.1676068    68.590466    68.590466    148.23458 
   24400    71731    300.76092   -659.72327   -7957740.6    64306.746   -7893433.9    697875.05    1.1667988    68.606127    68.606127    148.26952 
   24500    71731    299.85436   -734.16857   -7957952.4    64112.911   -7893839.5    697921.65     1.166721    68.600335    68.600335    148.30445 
   24600    71731    299.59675    105.19325   -7958090.4     64057.83   -7894032.6    697638.06    1.1671952    68.578319    68.578319    148.33939 
   24700    71731      299.575   -9.2814392   -7958143.5     64053.18   -7894090.4    697491.79      1.16744    68.563056    68.563056    148.37433 
   24800    71731    299.18062    143.77918   -7958189.8    63968.856   -7894220.9    697596.53    1.1672647    68.560133    68.560133    148.40926 
   24900    71731    300.88412   -1508.2232   -7958612.4    64333.088   -7894279.3    697743.98     1.167018    68.559309    68.559309     148.4442 
   25000    71731    299.41232   -922.35373     -7958451    64018.397   -7894432.6    698052.65     1.166502    68.566404    68.566404    148.47913 
   25100    71731    300.21642   -756.56971   -7958454.1    64190.325   -7894263.8    698020.95     1.166555    68.556782    68.556782    148.51407 
   25200    71731    300.88556   -436.69926   -7958187.1    64333.396   -7893853.7    697653.95    1.1671686    68.530697    68.530697    148.54901 
   25300    71731    300.53899   -779.85377   -7957930.5    64259.296   -7893671.2    697390.14    1.1676101    68.509683    68.509683    148.58394 
   25400    71731    301.10738       488.28   -7958183.9    64380.824     -7893803    697149.63     1.168013    68.489818    68.489818    148.61888 
   25500    71731    300.13308   -483.71045   -7958354.1    64172.505   -7894181.6    697054.76    1.1681719    68.477109    68.477109    148.65382 
   25600    71731    299.70087   -316.78509   -7958296.3    64080.093   -7894216.2    696896.13    1.1684378    68.461273    68.461273    148.68875 
   25700    71731    300.38935   -1403.5479   -7958321.5      64227.3   -7894094.2    696815.29    1.1685734    68.449261    68.449261    148.72369 
   25800    71731    300.52487   -966.52733     -7958209    64256.276   -7893952.7    696812.02    1.1685789    68.441062    68.441062    148.75863 
   25900    71731    301.45236   -936.87684   -7958247.6    64454.586     -7893793    697168.29    1.1679817    68.450519    68.450519    148.79356 
   26000    71731    300.03642   -1328.2454   -7958212.9     64151.84   -7894061.1    697573.56    1.1673031    68.462374    68.462374     148.8285 
   26100    71731    299.66283   -628.96274   -7958479.1    64071.959   -7894407.2    697978.07    1.1666266    68.474185    68.474185    148.86343 
   26200    71731    298.80329   -1630.8465   -7958284.5     63888.18   -7894396.3    698221.19    1.1662204    68.478074    68.478074    148.89837 
   26300    71731    299.44492   -1230.4178     -7957955    64025.369   -7893929.6     698424.6    1.1658808    68.480015    68.480015    148.93331 
   26400    71731    301.33931     360.9738   -7958137.7    64430.414   -7893707.3    698333.37    1.1660331    68.467513    68.467513    148.96824 
   26500    71731    300.00738   -1275.2911   -7958023.4     64145.63   -7893877.7    697974.24     1.166633     68.44188     68.44188    149.00318 
   26600    71731    300.58524    366.85852   -7958306.8    64269.183   -7894037.7    697758.99    1.1669929    68.423305    68.423305    149.03812 
   26700    71731     299.7101   -926.28334   -7958288.2    64082.067   -7894206.1    697773.13    1.1669693     68.41598     68.41598    149.07305 
   26800    71731    299.72812   -2097.2186   -7958124.5    64085.919   -7894038.6    697969.11    1.1666416     68.41757     68.41757    149.10799 
   26900    71731    299.52866    137.82806   -7957681.1    64043.273   -7893637.8    697944.97     1.166682    68.408374    68.408374    149.14292 
   27000    71731    300.84169   -1378.8119   -7957713.8    64324.016   -7893389.8    698189.71     1.166273    68.412354    68.412354    149.17786 
   27100    71731    300.88748   -1600.0036     -7957950    64333.808   -7893616.2    698539.18    1.1656895    68.421462    68.421462     149.2128 
   27200    71731    298.65637   -556.39519     -7957853    63856.765   -7893996.2    698490.46    1.1657708    68.411068    68.411068    149.24773 
   27300    71731    300.84619   -27.795458   -7958186.7    64324.979   -7893861.7    698551.93    1.1656682    68.406072    68.406072    149.28267 
   27400    71731    300.71909     362.1396   -7957994.8    64297.802     -7893697    698715.61    1.1653952    68.406082    68.406082    149.31761 
   27500    71731    301.27691   -329.33863   -7957913.3    64417.072   -7893496.2    699004.06    1.1649143    68.412197    68.412197    149.35254 
   27600    71731    300.47846     91.73702   -7957743.9    64246.352   -7893497.5    699532.14    1.1640349    68.430031    68.430031    149.38748 
   27700    71731     300.0065   -1515.3462   -7958092.7    64145.441   -7893947.3    700083.73    1.1631177    68.449001    68.449001    149.42241 
   27800    71731    298.05841   -494.97279   -7957825.6    63728.914   -7894096.7    700090.64    1.1631063    68.441339    68.441339    149.45735 
   27900    71731    300.51762   -1014.6382   -7958090.4    64254.726   -7893835.7    699813.23    1.1635673    68.419781    68.419781    149.49229 
   28000    71731    299.95276   -686.24963   -7957744.2    64133.951   -7893610.2    699629.72    1.1638725    68.402818    68.402818    149.52722 
   28100    71731    301.64258   -1297.1757   -7957692.9    64495.258   -7893197.7    699523.87    1.1640486    68.389654    68.389654    149.56216 
   28200    71731    301.36328   -1175.8715   -7957455.2    64435.538   -7893019.7    699581.47    1.1639528    68.384483    68.384483     149.5971 
   28300    71731    299.98744   -92.861471   -7957646.2    64141.366   -7893504.9    699717.72    1.1637261    68.383158    68.383158    149.63203 
   28400    71731    299.60646   -879.40696     -7957793    64059.908   -7893733.1    699857.73    1.1634933    68.382016    68.382016    149.66697 
   28500    71731    300.80038    216.10226   -7958107.8    64315.184   -7893792.6    699778.39    1.1636253    68.370161    68.370161     149.7019 
   28600    71731    300.42313   -2087.4643   -7958107.2    64234.523   -7893872.7    699947.77    1.1633437    68.370457    68.370457    149.73684 
   28700    71731    298.77863   -765.48841   -7957883.3    63882.906   -7894000.4    699829.53    1.1635402    68.356708    68.356708    149.77178 
   28800    71731    300.58729   -386.82532     -7957989    64269.622   -7893719.4    699932.16    1.1633696    68.353749    68.353749    149.80671 
   28900    71731    300.76686   -865.09745   -7957774.1    64308.016   -7893466.1    699777.69    1.1636264    68.338238    68.338238    149.84165 
   29000    71731    299.98514    293.03031   -7957694.5    64140.874   -7893553.7    699482.99    1.1641167    68.315882    68.315882    149.87659 
   29100    71731    299.67842   -1131.7451   -7958051.4    64075.292   -7893976.2    699765.75    1.1636463    68.321727    68.321727    149.91152 
   29200    71731    298.61837   -565.99529   -7958040.7     63848.64   -7894192.1    699837.88    1.1635263    68.317288    68.317288    149.94646 
   29300    71731    298.75203   -1591.4494   -7957883.7    63877.219   -7894006.5    699819.53    1.1635568    68.308435    68.308435    149.98139 
   29400    71731    300.70481    202.35394   -7958114.9    64294.748   -7893820.1    699778.02    1.1636259    68.298455    68.298455    150.01633 
   29500    71731    299.37622    -2128.244   -7957794.8    64010.679   -7893784.1    699669.02    1.1638071    68.285185    68.285185    150.05127 
   29600    71731    299.19777    -1335.509     -7957873    63972.524   -7893900.5     699173.5     1.164632    68.253055    68.253055     150.0862 
   29700    71731    300.47685   -1871.6459   -7958219.8    64246.009   -7893973.7    699384.71    1.1642803     68.25542     68.25542    150.12114 
   29800    71731    299.00154   -1958.0247     -7957945    63930.567   -7894014.4    699585.97    1.1639453    68.257298    68.257298    150.15608 
   29900    71731    301.31899   -554.47547   -7958020.2    64426.069   -7893594.1    699691.53    1.1637697    68.254507    68.254507    150.19101 
   30000    71731     301.5889    243.65018   -7957895.6     64483.78   -7893411.8    699529.38    1.1640395    68.238662    68.238662    150.22595 
   30100    71731    300.77941    338.58566   -7957840.8    64310.699   -7893530.1    699865.82    1.1634799    68.247135    68.247135    150.26088 
   30200    71731     297.6959   -1929.2283   -7957707.6    63651.403   -7894056.2    700048.12    1.1631769    68.248089    68.248089    150.29582 
   30300    71731    300.35154   -782.39625   -7958238.2    64219.216     -7894019    700251.06    1.1628398    68.250048    68.250048    150.33076 
   30400    71731    300.07282   -370.87361     -7958032    64159.621   -7893872.3    700422.11    1.1625558    68.250454    68.250454    150.36569 
   30500    71731    300.27505   -601.56052   -7957909.1    64202.862   -7893706.2     700063.5    1.1631513    68.225054    68.225054    150.40063 
   30600    71731     300.8569   -197.24422     -7957746    64327.269   -7893418.7    699926.11    1.1633797    68.210438    68.210438    150.43557 
   30700    71731    300.71884   -224.36669   -7957432.4    64297.749   -7893134.6    700016.14      1.16323    68.206905    68.206905     150.4705 
   30800    71731    301.42952   -773.42063   -7957784.7    64449.702     -7893335    700465.68    1.1624835    68.220883    68.220883    150.50544 
   30900    71731    299.47678   -1598.9747   -7957784.1    64032.181     -7893752    701030.99    1.1615461    68.240486    68.240486    150.54037 
   31000    71731    299.69375    949.30593   -7957822.9    64078.571   -7893744.3    701321.82    1.1610644    68.246721    68.246721    150.57531 
   31100    71731    300.45541    -722.7715   -7957771.3    64241.423   -7893529.9    702355.48    1.1593557    68.289075    68.289075    150.61025 
   31200    71731    300.60591    947.42386   -7957587.5    64273.603   -7893313.9    702327.69    1.1594015    68.279805    68.279805    150.64518 
   31300    71731    300.70932    695.74339     -7957521    64295.713   -7893225.3    702383.84    1.1593089    68.274618    68.274618    150.68012 
   31400    71731     299.4046   -740.31415   -7957587.2    64016.747   -7893570.5    701878.14    1.1601441    68.242124    68.242124    150.71506 
   31500    71731    300.10679   -1147.5899     -7958003    64166.884   -7893836.1    701966.56     1.159998    68.238515    68.238515    150.74999 
   31600    71731    298.05841    834.59377   -7957678.8    63728.913   -7893949.9    701903.88    1.1601016    68.227562    68.227562    150.78493 
   31700    71731    300.61229   -1967.7742   -7957805.7    64274.968   -7893530.7    702320.67    1.1594131    68.239911    68.239911    150.81986 
   31800    71731    300.00104   -1649.3251   -7957621.2    64144.273   -7893476.9    702455.89      1.15919    68.238577    68.238577     150.8548 
   31900    71731    300.14104    -269.3475   -7957733.2    64174.207     -7893559    702088.95    1.1597958    68.212854    68.212854    150.88974 
   32000    71731    300.40369   -1547.4011   -7957790.2    64230.366   -7893559.9       702326    1.1594043    68.216471    68.216471    150.92467 
   32100    71731    301.06037   -167.65168   -7957796.8    64370.773     -7893426    702238.73    1.1595484     68.20434     68.20434    150.95961 
   32200    71731    300.96802   -1052.8675   -7957937.9    64351.028   -7893586.9    702423.31    1.1592437     68.20541     68.20541    150.99455 
   32300    71731    298.53799   -232.11145   -7957805.1    63831.453   -7893973.7    702533.94    1.1590612    68.202891    68.202891    151.02948 
   32400    71731    299.57986   -255.69922   -7957938.1     64054.22   -7893883.9     702527.6    1.1590716    68.194697    68.194697    151.06442 
   32500    71731    300.74432   -1422.2017   -7957880.9    64303.196   -7893577.7    702968.53    1.1583446    68.208208    68.208208    151.09935 
   32600    71731    299.90489   -667.80459   -7957507.5    64123.716   -7893383.8     703009.5    1.1582771    68.202311    68.202311    151.13429 
   32700    71731    300.88221   -1748.4718   -7957731.6    64332.679     -7893399     703215.4     1.157938    68.204415    68.204415    151.16923 
   32800    71731    299.67037      967.624     -7958050    64073.573   -7893976.4    703020.27    1.1582594    68.187073    68.187073    151.20416 
   32900    71731    299.68572   -780.41435   -7958138.9    64076.853     -7894062    702891.52    1.1584715    68.172954    68.172954     151.2391 
   33000    71731    299.02666   -2197.7635     -7957766    63935.939     -7893830    702742.61     1.158717     68.15786     68.15786    151.27404 
   33100    71731    299.85406   -1120.1379   -7957540.7    64112.848   -7893427.8    702952.46    1.1583711    68.160165    68.160165    151.30897 
   33200    71731     300.4974    353.91677   -7957544.7    64250.402   -7893294.3    703458.35    1.1575381    68.176817    68.176817    151.34391 
   33300    71731    300.30407   -1082.5153   -7957730.9    64209.065   -7893521.8       703467    1.1575238    68.169368    68.169368    151.37885 
   33400    71731    300.27634   -2208.2947   -7957960.4    64203.137   -7893757.3    703790.56    1.1569917    68.177177    68.177177    151.41378 
   33500    71731    300.29395   -1157.9923   -7958002.9    64206.901     -7893796    703591.11    1.1573196    68.159653    68.159653    151.44872 
   33600    71731    299.56232   -925.78899   -7957779.6    64050.469   -7893729.2    703252.02    1.1578777    68.135368    68.135368    151.48365 
   33700    71731    300.55212    213.95586   -7957738.2    64262.101   -7893476.1     703229.3    1.1579151    68.126412    68.126412    151.51859 
   33800    71731    300.38007   -177.67176   -7957485.5    64225.315   -7893260.2    703006.46    1.1582821    68.107766    68.107766    151.55353 
   33900    71731    299.64331   -1411.0596   -7957474.8    64067.787     -7893407    703111.94    1.1581083    68.105026    68.105026    151.58846 
   34000    71731    299.37535    -1224.866     -7957971    64010.492   -7893960.5    703336.93    1.1577379    68.108073    68.108073     151.6234 
   34100    71731     298.6947   -796.71801   -7957871.3    63864.961   -7894006.4    703506.35    1.1574591     68.10843     68.10843    151.65834 
   34200    71731    298.54105    608.51705   -7957496.6    63832.108   -7893664.5    704048.92    1.1565671    68.126842    68.126842    151.69327 
   34300    71731     301.6738   -1251.4428   -7957866.9    64501.932     -7893365    704745.76    1.1554235    68.152701    68.152701    151.72821 
   34400    71731    302.20533   -1118.5932     -7957890    64615.581   -7893274.4     705749.9    1.1537796    68.193386    68.193386    151.76314 
   34500    71731    300.06814   -1706.3903   -7957613.4     64158.62   -7893454.8    706543.73    1.1524832    68.223875    68.223875    151.79808 
   34600    71731    298.72403    205.62562   -7957647.9    63871.231   -7893776.7    706575.05    1.1524322    68.217537    68.217537    151.83302 
   34700    71731     297.6937    1132.2293   -7957964.8    63650.934   -7894313.9    706241.72    1.1529761    68.193599    68.193599    151.86795 
   34800    71731    299.87816   -3123.1297   -7958204.9        64118   -7894086.9    706064.71    1.1532651    68.177211    68.177211    151.90289 
   34900    71731    300.18537   -648.34215   -7957983.4    64183.686   -7893799.7    705687.56    1.1538815    68.151164    68.151164    151.93783 
   35000    71731    301.30952   -710.36482   -7957944.5    64424.045   -7893520.4    704934.96    1.1551134    68.106984    68.106984    151.97276 
   35100    71731    300.80693     -1132.21   -7957647.6    64316.584   -7893331.1    704533.52    1.1557716    68.079764    68.079764     152.0077 
   35200    71731     300.7277   -57.995464   -7957447.7    64299.644   -7893148.1    704104.28    1.1564761    68.051202    68.051202    152.04263 
   35300    71731    298.84348   -657.77977   -7957303.9    63896.772   -7893407.2    704065.69    1.1565395     68.04152     68.04152    152.07757 
   35400    71731    298.99718   -189.96613   -7957696.3    63929.634   -7893766.7     703938.9    1.1567478     68.02758     68.02758    152.11251 
   35500    71731    300.06746    22.639228   -7957909.1    64158.476   -7893750.7    704024.45    1.1566073    68.023902    68.023902    152.14744 
   35600    71731    300.37859   -1485.4823   -7957689.6    64224.999   -7893464.6    703983.11    1.1566752    68.014097    68.014097    152.18238 
   35700    71731    299.82835   -2296.0685   -7957151.9    64107.351   -7893044.6    703513.77    1.1574469    67.983618    67.983618    152.21732 
   35800    71731    300.34277   -72.862287   -7957342.3     64217.34     -7893125    703192.66    1.1579754    67.960302    67.960302    152.25225 
   35900    71731    299.68059   -863.00868   -7957730.5    64075.757   -7893654.7     703596.1    1.1573114    67.971997    67.971997    152.28719 
   36000    71731    300.07493   -1838.7157   -7957890.7    64160.072   -7893730.6    704147.74    1.1564048    67.990839    67.990839    152.32212 
   36100    71731    299.30947   -1881.1736   -7957740.4    63996.408     -7893744    704837.57     1.155273    68.016336    68.016336    152.35706 
   36200    71731    300.15182   -127.79441   -7957843.8    64176.512   -7893667.2    705418.44    1.1543217    68.036556    68.036556      152.392 
   36300    71731    300.49992   -1256.2542   -7957488.9     64250.94   -7893237.9    705912.44    1.1535139    68.052575    68.052575    152.42693 
   36400    71731     302.2953   -174.48477   -7957625.9    64634.818   -7892991.1    706466.55    1.1526091    68.071478    68.071478    152.46187 
   36500    71731    300.69186    -1461.748   -7957498.4     64291.98   -7893206.4     706834.4    1.1520093    68.081398    68.081398    152.49681 
   36600    71731    299.80617     453.2267   -7957575.2    64102.609   -7893472.6    706900.91    1.1519009    68.076803    68.076803    152.53174 
   36700    71731    300.08971   -963.36372   -7957614.6    64163.232   -7893451.4     707292.9    1.1512625    68.087879    68.087879    152.56668 
   36800    71731    299.59663   -1270.0966   -7957462.3    64057.806   -7893404.5    707550.32    1.1508437    68.092472    68.092472    152.60161 
   36900    71731    299.32797   -1289.7452   -7957301.5    64000.362   -7893301.1    707964.38    1.1501706    68.104598    68.104598    152.63655 
   37000    71731    300.23617    4.5855095   -7957161.7    64194.549   -7892967.1    708023.32    1.1500748     68.09964     68.09964    152.67149 
   37100    71731     300.7046   -1091.4425   -7957128.7    64294.705     -7892834    708350.02    1.1495444    68.107557    68.107557    152.70642 
   37200    71731    299.31015   -871.79158   -7957208.3    63996.551   -7893211.8    708122.73    1.1499134    68.088841    68.088841    152.74136 
   37300    71731    299.22118   -1678.2559   -7957463.1    63977.529   -7893485.6    708016.97    1.1500852    68.075971    68.075971     152.7763 
   37400    71731    298.66526   -1189.0898   -7957330.1    63858.666   -7893471.5    707442.76    1.1510186    68.040581    68.040581    152.81123 
   37500    71731    299.58299   -2012.0119   -7957293.4    64054.888   -7893238.5    707428.61    1.1510417    68.032124    68.032124    152.84617 
   37600    71731    300.87446   -1118.2402   -7957458.5    64331.022   -7893127.5    707425.96     1.151046    68.024223    68.024223     152.8811 
   37700    71731    300.22295   -2067.4663   -7957469.1    64191.722   -7893277.4    707513.03    1.1509043    68.020638    68.020638    152.91604 
   37800    71731      298.293   -411.34922   -7957680.2    63779.073   -7893901.1    707378.02     1.151124    68.006379    68.006379    152.95098 
   37900    71731     298.9292    -507.6243   -7957661.7    63915.099   -7893746.6    707177.17    1.1514509    67.988959    67.988959    152.98591 
   38000    71731    301.47585    375.61655   -7957799.2    64459.608   -7893339.6     707485.4    1.1509493    67.996011    67.996011    153.02085 
   38100    71731    299.79643   -817.68944   -7957345.2    64100.526   -7893244.7    707221.71    1.1513784    67.975579    67.975579    153.05579 
   38200    71731    299.68071   -808.91154   -7957287.8    64075.782     -7893212    706985.52    1.1517631    67.956472    67.956472    153.09072 
   38300    71731    301.31466   -1415.4093     -7957505    64425.143   -7893079.9    707115.51    1.1515513    67.954965    67.954965    153.12566 
   38400    71731    301.01888   -1017.2207     -7957530    64361.902   -7893168.1    707737.22    1.1505398    67.977078    67.977078    153.16059 
   38500    71731    298.87644   -1722.5598   -7957541.1     63903.82   -7893637.2    708261.45    1.1496882    67.994495    67.994495    153.19553 
   38600    71731    299.96169   -1882.4673   -7957818.9     64135.86   -7893683.1    708432.68    1.1494103    67.994961    67.994961    153.23047 
   38700    71731    299.97747   -2019.1331   -7957606.2    64139.233   -7893466.9    708625.88    1.1490969    67.996481    67.996481     153.2654 
   38800    71731       301.55   -862.20439   -7957467.1    64475.462   -7892991.7     708530.6    1.1492514    67.984162    67.984162    153.30034 
   38900    71731    301.14483   -736.25356   -7957360.4    64388.832   -7892971.5    708722.01     1.148941    67.985598    67.985598    153.33528 
   39000    71731    300.47111   -495.95246   -7957455.5    64244.782   -7893210.8    708450.14    1.1493819    67.964815    67.964815    153.37021 
   39100    71731    300.14952   -1021.6464     -7957668     64176.02     -7893492    708481.59    1.1493309    67.958583    67.958583    153.40515 
   39200    71731    299.18733   -982.76601   -7957582.8    63970.291   -7893612.5    708559.94    1.1492038    67.954603    67.954603    153.44008 
   39300    71731    300.64276    -864.0416   -7957832.8    64281.482   -7893551.3    709343.92    1.1479337    67.984448    67.984448    153.47502 
   39400    71731    299.41128   -939.77749     -7957443    64018.175   -7893424.8    709603.29    1.1475141    67.989138    67.989138    153.50996 
   39500    71731    300.09517   -296.59661   -7957440.7    64164.401   -7893276.3    709967.56    1.1469254    67.998849    67.998849    153.54489 
   39600    71731    299.93736   -1043.6811   -7957226.9    64130.658   -7893096.3    710213.73    1.1465278    68.002901    68.002901    153.57983 
   39700    71731    300.56082    385.98248   -7956972.4    64263.962   -7892708.4    710009.21    1.1468581    67.985377    67.985377    153.61477 
   39800    71731    299.74343   -1663.2188   -7956758.3    64089.194   -7892669.2    710457.28    1.1461348    67.999094    67.999094     153.6497 
   39900    71731    299.82041    515.90603   -7957203.1    64105.652   -7893097.5    710502.88    1.1460612    67.993546    67.993546    153.68464 
   40000    71731    299.84597   -1295.7408   -7957421.3    64111.118   -7893310.2    710625.99    1.1458627    67.991709    67.991709    153.71958 
   40100    71731    299.84155   -25.286316   -7957399.8    64110.174   -7893289.6    710289.63    1.1464053    67.967892    67.967892    153.75451 
   40200    71731     300.4566   -882.10891   -7957206.6    64241.679   -7892964.9    710351.85    1.1463049    67.963148    67.963148    153.78945 
   40300    71731    300.56547   -2397.3786   -7957074.9    64264.956   -7892809.9    710381.44    1.1462572    67.956845    67.956845    153.82438 
   40400    71731    300.25891    326.91083     -7957154    64199.409   -7892954.5    710339.58    1.1463247    67.947128    67.947128    153.85932 
   40500    71731    299.23016   -948.16742   -7957226.7     63979.45   -7893247.3    710565.29    1.1459606    67.950208    67.950208    153.89426 
   40600    71731    299.98805    -2143.292   -7957319.8    64141.497   -7893178.3    710408.91    1.1462128     67.93502     67.93502    153.92919 
   40700    71731    301.05403   -497.51634   -7957359.7    64369.417   -7892990.3    710491.65    1.1460793    67.931267    67.931267    153.96413 
   40800    71731    301.35702   -954.28273   -7957343.2      64434.2     -7892909    710560.68     1.145968    67.926861    67.926861    153.99907 
   40900    71731     301.1355   -1528.4958   -7957569.2    64386.837   -7893182.4     710822.9    1.1455453    67.931688    67.931688      154.034 
   41000    71731    298.97401   -786.87221   -7957411.7    63924.681     -7893487    710759.33    1.1456477    67.920948    67.920948    154.06894 
   41100    71731    298.96005   -356.69432   -7957316.3    63921.697   -7893394.6    710850.25    1.1455012    67.917592    67.917592    154.10387 
   41200    71731     300.6183    743.39586   -7957324.4    64276.253   -7893048.2    710951.14    1.1453386    67.914714    67.914714    154.13881 
   41300    71731    300.48991   -1873.3157   -7957159.9      64248.8   -7892911.1    711050.53    1.1451785    67.911765    67.911765    154.17375 
   41400    71731       300.25   -2046.5167   -7957187.8    64197.506   -7892990.3    710652.47      1.14582    67.885062    67.885062    154.20868 
   41500    71731    300.30668   -102.77652   -7957312.3    64209.624   -7893102.7    710570.46    1.1459522    67.873457    67.873457    154.24362 
   41600    71731    298.75237   -247.31305   -7957252.9    63877.291   -7893375.6    710579.73    1.1459373    67.866214    67.866214    154.27856 
   41700    71731    298.03234   -1302.5185   -7957318.5     63723.34   -7893595.1    710755.99    1.1456531    67.866947    67.866947    154.31349 
   41800    71731    300.29447   -690.12061   -7957457.6    64207.012   -7893250.6    710956.89    1.1453294    67.868856    67.868856    154.34843 
   41900    71731    302.17003   -1488.4122   -7957441.1    64608.034   -7892833.1    711082.37    1.1451273    67.867165    67.867165    154.38336 
   42000    71731     300.7527   -510.75277   -7957242.1     64304.99   -7892937.1    711056.66    1.1451687     67.85826     67.85826     154.4183 
   42100    71731    300.23604   -206.82848   -7957283.8     64194.52   -7893089.2    711160.01    1.1450022    67.855516    67.855516    154.45324 
   42200    71731     298.1886   -1073.7276   -7957145.1     63756.75   -7893388.3    711556.22    1.1443647     67.86674     67.86674    154.48817 
   42300    71731    300.22516   -1838.1663   -7957573.7    64192.195   -7893381.5    711638.46    1.1442324    67.862989    67.862989    154.52311 
   42400    71731    301.34857   -969.33903   -7957271.9    64432.393   -7892839.5    711401.01    1.1446144    67.843997    67.843997    154.55805 
   42500    71731    301.06917   -1320.4304   -7956973.8    64372.655   -7892601.1    711236.59     1.144879    67.828491    67.828491    154.59298 
   42600    71731    300.46664   -2162.6162   -7957073.4    64243.825   -7892829.5    711260.49    1.1448405    67.821968    67.821968    154.62792 
   42700    71731    299.65915   -160.49001   -7957283.5    64071.173   -7893212.3    711337.06    1.1447172    67.817958    67.817958    154.66285 
   42800    71731    300.21105    468.63211   -7957456.3    64189.177   -7893267.1    711116.84    1.1450718    67.799802    67.799802    154.69779 
   42900    71731    300.42897   -932.65783   -7957481.9    64235.772   -7893246.1    710790.17     1.145598    67.776575    67.776575    154.73273 
   43000    71731     301.6368    548.46746   -7957385.2    64494.022   -7892891.2    710908.21    1.1454078    67.774552    67.774552    154.76766 
   43100    71731    301.31034   -1726.9803   -7956979.5     64424.22   -7892555.3    711252.98    1.1448526    67.783334    67.783334     154.8026 
   43200    71731    300.18091   -848.81205   -7957039.7    64182.731   -7892856.9    711819.33    1.1439417    67.802665    67.802665    154.83754 
   43300    71731    299.14621   -1888.1606   -7957087.2      63961.5   -7893125.7    712410.78     1.142992    67.823177    67.823177    154.87247 
   43400    71731    299.68279   -811.69921   -7957071.2    64076.227     -7892995    712530.93    1.1427992    67.821246    67.821246    154.90741 
   43500    71731    299.71857    -1460.012     -7957011    64083.879   -7892927.1    713118.59    1.1418575    67.841559    67.841559    154.94234 
   43600    71731    299.98621    -1493.343   -7957150.7    64141.102   -7893009.6    713023.93    1.1420091    67.829409    67.829409    154.97728 
   43700    71731    299.50938    -1359.362   -7957513.1    64039.149   -7893473.9    712984.04     1.142073    67.819868    67.819868    155.01222 
   43800    71731    299.74505   -410.13435   -7957548.6     64089.54   -7893459.1    712472.68    1.1428927    67.787905    67.787905    155.04715 
   43900    71731    299.89701   -1564.9155   -7957260.4    64122.031   -7893138.3    712386.84    1.1430304    67.776186    67.776186    155.08209 
   44000    71731    299.14828   -2743.5742   -7956999.9    63961.942     -7893038    712630.68    1.1426393     67.78015     67.78015    155.11703 
   44100    71731    298.45727   -318.71944   -7956807.6    63814.195   -7892993.4    712638.36     1.142627    67.772883    67.772883    155.15196 
   44200    71731     301.3194    373.88034   -7957304.4    64426.157   -7892878.3    712524.77    1.1428091    67.759853    67.759853     155.1869 
   44300    71731    300.19076   -1086.4054   -7957326.8    64184.839     -7893142    712543.89    1.1427785    67.753136    67.753136    155.22183 
   44400    71731    297.64747   -479.34763     -7957165    63641.048   -7893523.9    712934.82    1.1421518    67.764095    67.764095    155.25677 
   44500    71731    299.10594   -1511.7806     -7957346    63952.889   -7893393.1    713059.51    1.1419521    67.762396    67.762396    155.29171 
   44600    71731    300.94398    730.50228   -7957471.5    64345.886   -7893125.6     713016.1    1.1420216    67.752713    67.752713    155.32664 
   44700    71731    301.01095   -1088.1976   -7957415.6    64360.205   -7893055.4     713246.6    1.1416526    67.756044    67.756044    155.36158 
   44800    71731    300.31613   -1928.2178     -7957282    64211.645   -7893070.3     713251.6    1.1416445    67.748665    67.748665    155.39652 
   44900    71731    298.94971   -366.01018     -7957361    63919.485   -7893441.5    713399.13    1.1414085    67.748055    67.748055    155.43145 
   45000    71731    298.48339   -1162.5101   -7957406.1    63819.781   -7893586.3    713191.64    1.1417405    67.730591    67.730591    155.46639 
   45100    71731    299.90903   -214.57205   -7957494.7      64124.6   -7893370.1    713096.88    1.1418923    67.718483    67.718483    155.50132 
   45200    71731    299.53559    -292.6505   -7957199.2    64044.753   -7893154.4    712885.12    1.1422315    67.700823    67.700823    155.53626 
   45300    71731    298.74618   -1699.9558   -7956866.8    63875.967   -7892990.9    713392.02    1.1414198    67.717283    67.717283     155.5712 
   45400    71731    299.39247    -2814.785   -7956746.3    64014.152   -7892732.1    713872.24     1.140652    67.732467    67.732467    155.60613 
   45500    71731    300.45304   -41.567298   -7956909.9    64240.917     -7892669    714127.05     1.140245     67.73695     67.73695    155.64107 
   45600    71731    299.17092   -1101.8865   -7957242.6    63966.784   -7893275.8    714498.33    1.1396525    67.746953    67.746953    155.67601 
   45700    71731    299.63411    -1270.736   -7957425.2    64065.818   -7893359.4    714391.34    1.1398232    67.734281    67.734281    155.71094 
   45800    71731    298.71733   -1390.0148   -7957016.9    63869.799   -7893147.1    714388.79    1.1398272    67.726563    67.726563    155.74588 
   45900    71731    299.97949   -1457.4018   -7956952.3    64139.666   -7892812.6    714072.85    1.1403316    67.703992    67.703992    155.78081 
   46000    71731    300.90871   -1106.0634   -7957045.2    64338.346   -7892706.9    713802.61    1.1407633     67.68359     67.68359    155.81575 
   46100    71731    299.89796   -1601.6754   -7957255.2    64122.234     -7893133    713884.06    1.1406331    67.679865    67.679865    155.85069 
   46200    71731    299.56271   -2459.5848     -7957463    64050.554   -7893412.4    713911.42    1.1405894    67.673577    67.673577    155.88562 
   46300    71731    298.80286   -865.38057   -7957024.8    63888.086   -7893136.7    714065.46    1.1403434    67.673295    67.673295    155.92056 
   46400    71731    300.64278    447.61331   -7957071.4    64281.486   -7892789.9    714474.18     1.139691    67.685077    67.685077     155.9555 
   46500    71731    301.49925    -1036.112   -7957217.1    64464.612   -7892752.5    715111.93    1.1386746    67.707695    67.707695    155.99043 
   46600    71731    298.73786   -226.42693     -7956957    63874.188   -7893082.8    715027.64    1.1388089    67.696124    67.696124    156.02537 
   46700    71731    298.01013   -1047.5747   -7957014.3     63718.59   -7893295.7    714851.97    1.1390887    67.680231    67.680231     156.0603 
   46800    71731    298.90613   -1387.6776     -7957100    63910.167   -7893189.9    714646.99    1.1394154    67.662954    67.662954    156.09524 
   46900    71731    300.28463    -653.6558   -7957297.7     64204.91   -7893092.8    714422.17     1.139774    67.644741    67.644741    156.13018 
   47000    71731     299.4674    -1532.408   -7957155.4    64030.175   -7893125.2    714827.92     1.139127    67.656378    67.656378    156.16511 
   47100    71731    300.07384   -682.44781   -7957162.5    64159.839   -7893002.7    714739.91    1.1392673    67.644647    67.644647    156.20005 
   47200    71731    300.71817   -1276.7042   -7956975.7    64297.605   -7892678.1     714722.1    1.1392957    67.636241    67.636241    156.23499 
   47300    71731    301.10989   -697.66111   -7956892.1     64381.36   -7892510.7    714820.76    1.1391384    67.633347    67.633347    156.26992 
   47400    71731    300.53596   -350.75464   -7956977.5    64258.647   -7892718.9    714886.09    1.1390343    67.628878    67.628878    156.30486 
   47500    71731    300.16437     -622.452   -7957338.3    64179.196   -7893159.1    714789.68     1.139188    67.616762    67.616762     156.3398 
   47600    71731     297.9506   -196.55977   -7956884.9    63705.862     -7893179    714585.95    1.1395128    67.599572    67.599572    156.37473 
   47700    71731    300.87834    139.46462   -7957352.2    64331.852   -7893020.4    714438.35    1.1397482    67.585041    67.585041    156.40967 
   47800    71731    300.65344   -902.86004   -7957327.8    64283.766     -7893044    714624.03     1.139452    67.586276    67.586276     156.4446 
   47900    71731    297.85057   -1250.1665   -7957169.3    63684.474   -7893484.8    714913.86    1.1389901    67.592433    67.592433    156.47954 
   48000    71731    297.64359    -240.8825     -7957077     63640.22   -7893436.8     715270.4    1.1384223    67.601739    67.601739    156.51448 
   48100    71731    301.12069   -2007.0072     -7957351     64383.67   -7892967.4    715570.98    1.1379441    67.608397    67.608397    156.54941 
   48200    71731    299.29479    728.36396     -7956877    63993.267   -7892883.7    715163.25    1.1385929    67.581592    67.581592    156.58435 
   48300    71731    300.39355    1232.1182   -7957041.3    64228.197   -7892813.1     715024.6    1.1388137    67.567504    67.567504    156.61929 
   48400    71731    299.58459   -136.70299   -7956783.2    64055.231   -7892727.9    714810.51    1.1391548    67.549854    67.549854    156.65422 
   48500    71731    301.95052   -277.23196   -7957065.9      64561.1   -7892504.8    714214.49    1.1401054    67.514158    67.514158    156.68916 
   48600    71731     301.5262   -1097.0818     -7957074    64470.374   -7892603.6    714493.38    1.1396604    67.519811    67.519811    156.72409 
   48700    71731    299.72095   -507.24729   -7957177.5    64084.387   -7893093.1    714569.05    1.1395397    67.515862    67.515862    156.75903 
   48800    71731    299.10424   -1117.6318   -7957126.1    63952.525   -7893173.6    714844.35    1.1391008    67.521343    67.521343    156.79397 
   48900    71731    299.09319   -1392.3299   -7956938.9    63950.162   -7892988.7     714841.6    1.1391052    67.513692    67.513692     156.8289 
   49000    71731    300.53885   -308.02498     -7956937    64259.265   -7892677.7    715294.86    1.1383834    67.527572    67.527572    156.86384 
   49100    71731    301.87132   -1579.1331   -7956878.5    64544.164   -7892334.3    715867.06    1.1374735    67.547054    67.547054    156.89878 
   49200    71731    299.93063   -2417.2631   -7956705.1     64129.22   -7892575.9    715991.69    1.1372755    67.545414    67.545414    156.93371 
   49300    71731      299.163   -1553.2147   -7957000.1    63965.091     -7893035     716070.2    1.1371508      67.5416      67.5416    156.96865 
   49400    71731    299.94058   -341.35205   -7957104.1    64131.346   -7892972.7    715908.12    1.1374082    67.526441    67.526441    157.00358 
   49500    71731    299.23512   -1530.9602   -7956682.7    63980.509   -7892702.2    715807.15    1.1375687    67.514168    67.514168    157.03852 
   49600    71731    301.21333   -125.73804   -7956917.1    64403.478   -7892513.6    715869.76    1.1374692    67.509611    67.509611    157.07346 
   49700    71731    300.29825   -428.36274   -7957034.2    64207.822   -7892826.4    715991.31    1.1372761    67.507835    67.507835    157.10839 
   49800    71731    299.66569   -739.32769   -7957307.9    64072.571   -7893235.3    715567.88    1.1379491    67.480368    67.480368    157.14333 
   49900    71731    300.91566   -551.23434   -7957463.1    64339.832   -7893123.3    715358.79    1.1382817     67.46301     67.46301    157.17827 
   50000    71731    300.37155    398.03288   -7957100.4    64223.493   -7892876.9    715234.61    1.1384793    67.449658    67.449658     157.2132 
   50100    71731    300.68979     449.8821   -7956871.2    64291.538   -7892579.6    715470.76    1.1381035    67.453298    67.453298    157.24814 
   50200    71731    302.13938   -1047.5572     -7956789    64601.481   -7892187.5    715702.87    1.1377344    67.456746    67.456746    157.28307 
   50300    71731    300.14991   -1576.6233   -7956537.2    64176.104   -7892361.1    715873.92    1.1374626    67.457314    67.457314    157.31801 
   50400    71731    300.44137   -1980.1263     -7957123    64238.423   -7892884.6    716846.74     1.135919     67.49564     67.49564    157.35295 
   50500    71731    299.03719    499.73029   -7956952.2     63938.19     -7893014    717296.85    1.1352062    67.509333    67.509333    157.38788 
   50600    71731    298.62999     -456.187   -7956928.8    63851.125   -7893077.6    717605.19    1.1347184    67.516348    67.516348    157.42282 
   50700    71731     298.4216    -2038.771   -7957042.1    63806.568   -7893235.5    717494.33    1.1348937    67.503642    67.503642    157.45776 
   50800    71731    299.68881   -1815.1161   -7957327.9    64077.515   -7893250.4    717582.93    1.1347536    67.500322    67.500322    157.49269 
   50900    71731    300.34849   -1317.3912     -7957119    64218.564   -7892900.4    717689.38    1.1345853    67.497843    67.497843    157.52763 
   51000    71731    301.28343   -1662.2417   -7956977.9    64418.467   -7892559.5    717573.59    1.1347684    67.484914    67.484914    157.56256 
   51100    71731     299.7102   -1612.5586   -7956655.6    64082.089   -7892573.5    717248.69    1.1352824    67.462156    67.462156     157.5975 
   51200    71731    299.42113   -1275.6668   -7956858.9    64020.281   -7892838.6    716838.68    1.1359317    67.435398    67.435398    157.63244 
   51300    71731    298.78397   -1796.0357   -7957210.2    63884.047   -7893326.1    716664.56    1.1362077    67.419736    67.419736    157.66737 
   51400    71731    300.02686    618.43239   -7957358.6    64149.795   -7893208.8    716168.61    1.1369945    67.388938    67.388938    157.70231 
[...]
  387600    71731    301.00003    212.27356   -7960016.5    64357.872   -7895658.7    1132430.1   0.71905524     64.15265     64.15265    275.15804 
  387700    71731    300.18397   -395.44499   -7960145.5    64183.386   -7895962.1    1132712.3   0.71887612    64.156569    64.156569    275.19298 
  387800    71731    299.94667    286.16992   -7960443.3    64132.649   -7896310.7    1133012.4   0.71868572    64.160994    64.160994    275.22791 
  387900    71731    298.97717    138.46958     -7960134    63925.356   -7896208.6    1133308.4   0.71849797    64.165305    64.165305    275.26285 
  388000    71731    300.51938   -45.350429   -7960132.4    64255.101   -7895877.3    1133692.5   0.71825455    64.172104    64.172104    275.29778 
  388100    71731    300.49176   -261.61778   -7959961.9    64249.195   -7895712.7      1134249   0.71790214    64.183781    64.183781    275.33272 
  388200    71731    299.56071   -223.58143   -7959841.2    64050.126   -7895791.1    1134315.7   0.71785992    64.181596    64.181596    275.36766 
  388300    71731    300.31936    71.401815   -7960116.2    64212.334   -7895903.8    1134239.4   0.71790822    64.175366    64.175366    275.40259 
  388400    71731    301.01276    594.66369   -7960420.8    64360.593   -7896060.2    1133607.4   0.71830847    64.153415    64.153415    275.43753 
  388500    71731    299.13644   -182.57255   -7960143.6    63959.411   -7896184.1    1133018.6   0.71868179    64.132683    64.132683    275.47247 
  388600    71731    299.86955    814.29648   -7960100.9     64116.16   -7895984.7    1133069.9   0.71864922     64.13007     64.13007     275.5074 
  388700    71731    300.86371    573.14623   -7959926.8    64328.724   -7895598.1    1133504.6   0.71837362    64.138305    64.138305    275.54234 
  388800    71731    301.35239    553.72075   -7960119.6    64433.211   -7895686.4    1133910.6    0.7181164    64.145724    64.145724    275.57727 
  388900    71731    300.99242    585.98429   -7960458.6    64356.244   -7896102.3      1134429   0.71778824    64.156319    64.156319    275.61221 
  389000    71731    300.22141   -841.17523   -7960392.3    64191.393   -7896200.9    1134041.8   0.71803333    64.141303    64.141303    275.64715 
  389100    71731    300.13219   -544.60837   -7960229.6    64172.314   -7896057.3    1133642.9     0.718286    64.125957    64.125957    275.68208 
  389200    71731    300.13412    -826.7727   -7959987.3    64172.729   -7895814.6    1133568.8   0.71833294    64.119799    64.119799    275.71702 
  389300    71731    301.14067   -816.26771   -7960124.5    64387.941   -7895736.6    1134297.7   0.71787134    64.136348    64.136348    275.75196 
  389400    71731    299.95834   -302.45574   -7960185.5    64135.144   -7896050.4    1134575.7   0.71769543    64.140144    64.140144    275.78689 
  389500    71731    299.59683    375.79326   -7960395.5    64057.849   -7896337.7    1135196.9   0.71730273    64.153636    64.153636    275.82183 
  389600    71731     299.5784   -150.85797   -7960376.1    64053.908   -7896322.2    1135852.8   0.71688848    64.168105    64.168105    275.85676 
  389700    71731    301.27456    647.96202   -7960342.9     64416.57   -7895926.3    1135833.7   0.71690054    64.163502    64.163502     275.8917 
  389800    71731    300.87893    899.37277     -7959954     64331.98     -7895622    1136021.3   0.71678213    64.164739    64.164739    275.92664 
  389900    71731    299.99782    549.39489     -7959833    64143.584   -7895689.4    1136227.6   0.71665204    64.166501    64.166501    275.96157 
  390000    71731    300.32854     144.3517   -7960035.8    64214.298   -7895821.5    1136698.7   0.71635502     64.17574     64.17574    275.99651 
  390100    71731    298.73667   -1078.6693   -7959896.1    63873.933   -7896022.2    1137335.9   0.71595368    64.189662    64.189662    276.03145 
  390200    71731    299.16017   -309.00178   -7960149.1    63964.485   -7896184.6    1137343.4   0.71594893    64.185813    64.185813    276.06638 
  390300    71731    298.75432    449.29342   -7960199.1    63877.708   -7896321.4    1137031.1   0.71614561    64.172938    64.172938    276.10132 
  390400    71731    299.40584    151.51424   -7960076.9    64017.013   -7896059.8    1136942.8   0.71620122    64.166387    64.166387    276.13625 
  390500    71731    300.81561    443.53954   -7960041.3     64318.44   -7895722.9    1136793.4    0.7162953    64.158115    64.158115    276.17119 
  390600    71731    299.74158    1009.7251   -7960002.6    64088.798   -7895913.8    1136425.8   0.71652701    64.143683    64.143683    276.20613 
  390700    71731    300.28604   -238.57953   -7960378.1    64205.211   -7896172.9    1137463.8   0.71587316    64.168912    64.168912    276.24106 
  390800    71731    299.91065    551.66516   -7960464.7    64124.947   -7896339.8    1137949.3   0.71556775    64.178546    64.178546      276.276 
  390900    71731    300.50806   -775.00851   -7960321.9    64252.682   -7896069.3    1138875.6   0.71498576    64.200602    64.200602    276.31094 
  391000    71731    300.74915   -168.43743   -7960075.1    64304.231   -7895770.9    1139504.8   0.71459096    64.214275    64.214275    276.34587 
  391100    71731    301.43297   -1044.3321   -7960182.7     64450.44   -7895732.3    1139809.1   0.71440016     64.21879     64.21879    276.38081 
  391200    71731    300.79583    377.67854   -7960318.2    64314.211     -7896004    1139698.9   0.71446922    64.211628    64.211628    276.41574 
  391300    71731    299.76622   -528.44028   -7960447.4    64094.066   -7896353.3    1139347.8   0.71468942    64.197679    64.197679    276.45068 
  391400    71731    299.35572   -226.96906   -7960291.4    64006.297   -7896285.1      1139335   0.71469744    64.193262    64.193262    276.48562 
  391500    71731    301.69694    482.78487   -7960208.7    64506.881   -7895701.8    1139590.1   0.71453747    64.196392    64.196392    276.52055 
  391600    71731    300.10085    298.08074   -7959890.1    64165.615   -7895724.4    1139727.3   0.71445143    64.196202    64.196202    276.55549 
  391700    71731    299.08669   -483.67047   -7959871.1    63948.773   -7895922.4    1139697.3   0.71447025    64.191302    64.191302    276.59043 
  391800    71731    298.92549    679.74356   -7960133.7    63914.307   -7896219.4    1139508.4    0.7145887    64.181928    64.181928    276.62536 
  391900    71731    299.38674   -449.54578   -7960332.6    64012.929   -7896319.7      1139790   0.71441214    64.185806    64.185806     276.6603 
  392000    71731    300.95749    3.8418705   -7960401.6    64348.776   -7896052.8    1140364.8   0.71405206    64.197934    64.197934    276.69524 
  392100    71731    301.73035    654.63437   -7960084.6    64514.023   -7895570.6    1140676.7   0.71385681     64.20266     64.20266    276.73017 
  392200    71731    301.15047   -1041.2349   -7959995.7    64390.037   -7895605.7    1141461.8   0.71336579    64.220698    64.220698    276.76511 
  392300    71731    300.04193    813.75615   -7960144.1    64153.016   -7895991.1    1141344.2    0.7134393    64.213337    64.213337    276.80004 
  392400    71731    300.36568   -294.72224   -7960279.8    64222.238   -7896057.5    1141128.2   0.71357436    64.203208    64.203208    276.83498 
  392500    71731    301.63504   -265.72787   -7960477.6    64493.644     -7895984    1141009.4   0.71364866    64.195815    64.195815    276.86992 
  392600    71731    300.78178   -81.592123   -7960265.1    64311.206   -7895953.9    1141185.7   0.71353838    64.196726    64.196726    276.90485 
  392700    71731    299.84215    402.58835   -7959909.2    64110.301   -7895798.9    1141190.7   0.71353525    64.192817    64.192817    276.93979 
  392800    71731    300.21834    153.16934   -7959715.6    64190.735   -7895524.9    1141446.6   0.71337528    64.195965    64.195965    276.97473 
  392900    71731     300.0425    640.43414   -7959636.9    64153.139   -7895483.8    1141391.9   0.71340949    64.190378    64.190378    277.00966 
  393000    71731    300.45392    71.385853   -7960080.8    64241.105   -7895839.7    1141455.1   0.71336997    64.188109    64.188109     277.0446 
  393100    71731    300.14664   -197.96512   -7960337.2    64175.405   -7896161.8    1141670.1   0.71323561    64.190107    64.190107    277.07953 
  393200    71731    299.48068    279.65733   -7960191.7    64033.014   -7896158.7    1141298.7   0.71346771    64.175619    64.175619    277.11447 
  393300    71731     299.2555   -1234.7012   -7959861.5    63984.867   -7895876.7    1141373.9   0.71342076    64.173686    64.173686    277.14941 
  393400    71731    300.27082   -510.35653   -7959845.2    64201.956   -7895643.2    1142128.8   0.71294916    64.190861    64.190861    277.18434 
  393500    71731    301.23367    110.75221   -7960080.5    64407.827   -7895672.7    1142758.4   0.71255642    64.204503    64.204503    277.21928 
  393600    71731    299.46487    335.43232   -7959770.4    64029.632   -7895740.8    1142763.5   0.71255323    64.200601    64.200601    277.25422 
  393700    71731    300.59952   -995.26959   -7959917.2    64272.237     -7895645    1143337.5    0.7121955    64.212678    64.212678    277.28915 
  393800    71731    300.73955    41.872662   -7960157.1    64302.177     -7895855    1143515.1   0.71208485    64.213622    64.213622    277.32409 
  393900    71731    299.54638     741.3167   -7960366.8    64047.062   -7896319.7    1143802.1   0.71190618    64.217634    64.217634    277.35902 
  394000    71731    299.05295    134.66569   -7960247.1    63941.558   -7896305.6    1144147.7   0.71169118    64.223288    64.223288    277.39396 
  394100    71731    301.10325    340.20233   -7960378.1    64379.941   -7895998.2    1144002.7   0.71178134    64.215177    64.215177     277.4289 
  394200    71731     300.5936   -634.11418   -7959975.9     64270.97   -7895704.9    1144441.3   0.71150857    64.223441    64.223441    277.46383 
  394300    71731     299.8496    377.08175   -7959762.3    64111.894   -7895650.4      1143827   0.71189072    64.202159    64.202159    277.49877 
  394400    71731    299.68397   -560.06465   -7959755.8    64076.479   -7895679.3    1144181.2   0.71167032    64.208059    64.208059    277.53371 
  394500    71731    300.15893      9.74477   -7959965.2    64178.034   -7895787.1      1144158   0.71168476    64.203366    64.203366    277.56864 
  394600    71731    300.55966    332.41955   -7960256.8    64263.713   -7895993.1    1144285.1   0.71160569    64.202893    64.202893    277.60358 
  394700    71731    301.17584    518.28389   -7960506.8    64395.463   -7896111.3    1144021.2   0.71176988    64.191448    64.191448    277.63851 
  394800    71731    298.97452    -553.0173   -7960326.5    63924.789   -7896401.7      1143680   0.71198221    64.177838    64.177838    277.67345 
  394900    71731    298.87901   -961.66518   -7960462.4    63904.368     -7896558      1143491    0.7120999    64.168498    64.168498    277.70839 
  395000    71731    300.50237   -75.627295   -7960414.9    64251.465   -7896163.5    1143459.7   0.71211938    64.163584    64.163584    277.74332 
  395100    71731    301.56017     638.8454   -7960407.3    64477.637   -7895929.7    1143173.9   0.71229741    64.151531    64.151531    277.77826 
  395200    71731    299.16974   -656.52256   -7960038.7    63966.532   -7896072.1    1142747.7   0.71256309    64.135537    64.135537     277.8132 
  395300    71731    301.02747    901.33556   -7960462.9    64363.739   -7896099.2    1142400.4   0.71277971    64.121759    64.121759    277.84813 
  395400    71731    299.23924    720.20356   -7960058.5    63981.391   -7896077.1    1142546.9   0.71268827    64.121841    64.121841    277.88307 
  395500    71731    299.98258   -599.95947   -7960077.1    64140.327   -7895936.8      1142865   0.71248995    64.126734    64.126734      277.918 
  395600    71731     300.3893    782.34033   -7960119.9    64227.289   -7895892.6    1143082.9   0.71235411    64.128817    64.128817    277.95294 
  395700    71731    300.15518    710.26513     -7960132     64177.23   -7895954.8    1143719.9   0.71195737    64.142652    64.142652    277.98788 
  395800    71731    300.87601   -439.98782   -7960224.5    64331.353   -7895893.2    1144083.4   0.71173115    64.148814    64.148814    278.02281 
  395900    71731    301.66856   -14.629567   -7959949.2    64500.812   -7895448.4    1144120.2   0.71170824    64.145816    64.145816    278.05775 
  396000    71731    300.67247    47.714092   -7959738.2    64287.834   -7895450.3    1144157.9   0.71168485    64.142841    64.142841    278.09269 
  396100    71731      300.204    780.66592   -7960084.3     64187.67   -7895896.6    1143175.4   0.71229649    64.111268    64.111268    278.12762 
  396200    71731    299.73657   -183.93485     -7960186    64087.727   -7896098.2      1143032    0.7123858    64.103223    64.103223    278.16256 
  396300    71731    298.78699   -788.67835   -7960000.1    63884.693   -7896115.4    1143169.5   0.71230018    64.103051    64.103051    278.19749 
  396400    71731     300.3385    678.61591   -7960234.3    64216.428   -7896017.8    1142852.4   0.71249778    64.090137    64.090137    278.23243 
  396500    71731    300.84011    -17.98877     -7959978    64323.678   -7895654.3    1143177.8   0.71229499    64.095236    64.095236    278.26737 
  396600    71731    300.22842    621.78862   -7959623.3    64192.891   -7895430.4    1142951.5     0.712436    64.084869    64.084869     278.3023 
  396700    71731    300.28067   -166.27536   -7959940.1    64204.063     -7895736    1143329.5   0.71220047    64.091443    64.091443    278.33724 
  396800    71731    299.08174    296.42934   -7960065.9    63947.714   -7896118.2      1143885   0.71185462    64.102987    64.102987    278.37218 
  396900    71731    300.23963    235.25332   -7960231.5    64195.287   -7896036.2    1144065.3   0.71174244    64.104016    64.104016    278.40711 
  397000    71731    300.91089   -189.76134   -7960239.2    64338.812   -7895900.4      1144545   0.71144409    64.113433    64.113433    278.44205 
  397100    71731    300.21574    843.35094   -7959809.7    64190.179   -7895619.5    1144620.7   0.71139703    64.111532    64.111532    278.47698 
  397200    71731    303.59295   -202.02498   -7960017.2    64912.273   -7895104.9    1144383.5   0.71154454    64.100866    64.100866    278.51192 
  397300    71731    302.54198    967.12134   -7960073.7    64687.561   -7895386.1    1143678.5   0.71198313      64.0771      64.0771    278.54686 
  397400    71731    299.48467    242.73285   -7959756.6    64033.867   -7895722.8    1143748.7   0.71193941    64.075049    64.075049    278.58179 
  397500    71731    299.55542   -124.10984   -7959979.6    64048.994   -7895930.6    1144061.6   0.71174474    64.079793    64.079793    278.61673 
  397600    71731    300.67394    165.17411   -7960314.3    64288.149   -7896026.1    1144222.1   0.71164492     64.08027     64.08027    278.65167 
  397700    71731    299.75765    133.99308   -7959953.7    64092.234   -7895861.5    1145115.5   0.71108968    64.101265    64.101265     278.6866 
  397800    71731    301.13549   -148.49423   -7959914.7    64386.834   -7895527.9    1146289.7   0.71036129    64.130101    64.130101    278.72154 
  397900    71731     301.1175   -55.799163   -7959903.8    64382.988   -7895520.8    1147998.8   0.70930372     64.17387     64.17387    278.75647 
  398000    71731      299.368    -155.7887     -7959980    64008.921   -7895971.1      1148664   0.70889293    64.188439    64.188439    278.79141 
  398100    71731    299.71594   -544.43012   -7960251.3    64083.316     -7896168    1149124.2   0.70860905    64.197273    64.197273    278.82635 
  398200    71731    299.00147    171.40445   -7960053.1    63930.552   -7896122.5      1148843    0.7087825    64.185396    64.185396    278.86128 
  398300    71731    301.31942   -82.186255   -7960092.6    64426.162   -7895666.5    1148873.9   0.70876343     64.18224     64.18224    278.89622 
  398400    71731    301.40073    19.511886   -7959870.5    64443.547   -7895426.9    1148507.9   0.70898931    64.167996    64.167996    278.93116 
  398500    71731    300.34515   -188.85644   -7959752.9     64217.85     -7895535    1148349.1   0.70908732    64.159543    64.159543    278.96609 
  398600    71731    300.17151   -271.29943   -7960006.9    64180.722   -7895826.2    1148188.2   0.70918668    64.151032    64.151032    279.00103 
  398700    71731    299.97454     422.7897   -7960067.4    64138.609   -7895928.8      1147463   0.70963489    64.126754    64.126754    279.03596 
  398800    71731    299.96423    575.85699   -7960053.1    64136.404   -7895916.7    1147179.2   0.70981047    64.114809    64.114809     279.0709 
  398900    71731    300.33871     571.4774   -7960297.7    64216.472   -7896081.2    1147068.2   0.70987914    64.107695    64.107695    279.10584 
  399000    71731    297.72669   -49.115285     -7960228    63657.987     -7896570    1148197.6   0.70918088    64.135234    64.135234    279.14077 
  399100    71731    299.59603   -102.57323   -7960530.7    64057.678     -7896473    1149108.1   0.70861899    64.156642    64.156642    279.17571 
  399200    71731    299.63786    294.85252   -7960268.4    64066.622   -7896201.8      1149996   0.70807187    64.177408    64.177408    279.21065 
  399300    71731    299.85259    525.36687   -7960024.8    64112.534   -7895912.2    1150997.2   0.70745596    64.201322    64.201322    279.24558 
  399400    71731     301.1055    -452.5562   -7960068.1    64380.423   -7895687.6    1151873.1   0.70691801    64.221728    64.221728    279.28052 
  399500    71731    299.68997    69.093257   -7959861.3    64077.764   -7895783.5    1151665.1   0.70704568    64.211913    64.211913    279.31546 
  399600    71731    300.92352    107.22261   -7960144.1    64341.512   -7895802.6    1150592.8   0.70770456    64.178002    64.178002    279.35039 
  399700    71731    300.84411   -324.46512   -7960178.9    64324.533   -7895854.3    1150175.6   0.70796127    64.162353    64.162353    279.38533 
  399800    71731    300.04969    117.30891   -7960120.8    64154.676   -7895966.1    1149412.7    0.7084312    64.137059    64.137059    279.42026 
  399900    71731    299.60083   -406.38134   -7960151.6    64058.704   -7896092.9    1149063.1    0.7086467    64.123298    64.123298     279.4552 
  400000    71731    299.52049   -152.46002   -7960345.8    64041.525   -7896304.3    1148829.8   0.70879066    64.112778    64.112778    279.49014 
Loop time of 200886 on 56 procs for 400000 steps with 71731 atoms

Performance: 0.043 ns/day, 558.016 hours/ns, 1.991 timesteps/s
94.9% CPU use with 56 MPI tasks x no OpenMP threads

MPI task timing breakdown:
Section |  min time  |  avg time  |  max time  |%varavg| %total
---------------------------------------------------------------
Pair    | 50464      | 88510      | 1.0717e+05 |5143.8 | 44.06
Neigh   | 3103.8     | 5904.5     | 8307.9     |1923.4 |  2.94
Comm    | 4490.6     | 20653      | 51949      |9741.8 | 10.28
Output  | 10.235     | 36.225     | 36.744     |  58.2 |  0.02
Modify  | 81099      | 85771      | 99797      |1255.4 | 42.70
Other   |            | 11.63      |            |       |  0.01

Nlocal:    1280.91 ave 2327 max 0 min
Histogram: 13 2 1 2 4 2 3 8 15 6
Nghost:    9781.34 ave 17018 max 97 min
Histogram: 8 6 2 0 8 0 0 15 9 8
Neighs:    1.07797e+06 ave 2.21095e+06 max 0 min
Histogram: 15 1 2 5 1 2 10 11 5 4

Total # of neighbors = 60366066
Ave neighs/atom = 841.562
Neighbor list builds = 40000
Dangerous builds not checked
write_restart restart.after_deform
unfix 1
unfix 2
unfix 3
unfix std
unfix bd

Please see the log.cite file for references relevant to this simulation

Total wall time: 55:48:07
