LAMMPS (2 Aug 2019)
#lammps code to run fracture simulations on PNC with three cnt
#functionalized 10 % with -OH group
#cnt not fixed during nvt equilibration in materials studio

units		real
atom_style 	charge
boundary 	p p p
read_data       three_cnt_funct.data
  orthogonal box = (0.699351 2.58638 -5.19311) to (70.6994 72.5864 134.807)
  2 by 4 by 7 MPI processor grid
  reading atoms ...
  73155 atoms
  read_data CPU = 0.199588 secs

pair_style	reax/c control_file lgvdw yes
pair_coeff	* * ffield.reax.lg C C H O H C C C O O C C
Reading potential file ffield.reax.lg with DATE: 2012-01-06

neighbor	4 bin
neigh_modify	every 10 delay 0 check no

thermo 100
thermo_style custom step atoms temp press pe ke etotal vol density lx ly lz      #output variables

fix std all qeq/reax 1 0.0 10.0 1e-6 reax/c
min_style	 cg							#conjugate gradient minimization
minimize	 1.0e-6 1.0e-8 10000 100000
WARNING: Using 'neigh_modify every 1 delay 0 check yes' setting during minimization (../min.cpp:168)
Neighbor list info ...
  update every 1 steps, delay 0 steps, check yes
  max neighbors/atom: 2000, page size: 100000
  master list distance cutoff = 14
  ghost atom cutoff = 14
  binsize = 7, bins = 10 10 20
  2 neighbor lists, perpetual/occasional/extra = 2 0 0
  (1) pair reax/c, perpetual
      attributes: half, newton off, ghost
      pair build: half/bin/newtoff/ghost
      stencil: half/ghost/bin/3d/newtoff
      bin: standard
  (2) fix qeq/reax, perpetual, copy from (1)
      attributes: half, newton off, ghost
      pair build: copy
      stencil: none
      bin: none
Per MPI rank memory allocation (min/avg/max) = 320.7 | 327.9 | 337.2 Mbytes
Step Atoms Temp Press PotEng KinEng TotEng Volume Density Lx Ly Lz 
       0    73155            0    309048.16   -7729670.4            0   -7729670.4       686000    1.2065849           70           70          140 
      69    73155            0    7212.4124   -8131276.7            0   -8131276.7       686000    1.2065849           70           70          140 
Loop time of 152.173 on 56 procs for 69 steps with 73155 atoms

94.1% CPU use with 56 MPI tasks x no OpenMP threads

Minimization stats:
  Stopping criterion = energy tolerance
  Energy initial, next-to-last, final = 
        -7729670.43006     -8131274.53443     -8131276.73851
  Force two-norm initial, final = 64240.1 4391.42
  Force max component initial, final = 4063.18 325.577
  Final line search alpha, max atom move = 0.000126857 0.0413016
  Iterations, force evaluations = 69 199

MPI task timing breakdown:
Section |  min time  |  avg time  |  max time  |%varavg| %total
---------------------------------------------------------------
Pair    | 49.263     | 51.914     | 55.337     |  19.4 | 34.12
Neigh   | 0          | 0          | 0          |   0.0 |  0.00
Comm    | 2.0881     | 5.266      | 8.3547     |  66.0 |  3.46
Output  | 0          | 0          | 0          |   0.0 |  0.00
Modify  | 94.362     | 94.4       | 94.425     |   0.1 | 62.03
Other   |            | 0.5932     |            |       |  0.39

Nlocal:    1306.34 ave 1375 max 1225 min
Histogram: 2 1 2 7 11 10 11 4 6 2
Nghost:    13352.3 ave 13659 max 13079 min
Histogram: 7 7 5 5 6 2 8 8 4 4
Neighs:    1.25922e+06 ave 1.36592e+06 max 1.16051e+06 min
Histogram: 3 3 6 12 6 10 7 2 6 1

Total # of neighbors = 70516379
Ave neighs/atom = 963.931
Neighbor list builds = 0
Dangerous builds not checked


#set of equilibrations to reduce the energy of the system

reset_timestep 0
timestep 0.25
#fix nvt_equi all nvt temp 300.0 300.0 25.0
fix npt_equi all npt temp 300.0 300.0 25.0 iso 1.0 1.0 250.0
dump npt_dump all custom 500 dump.npt id type x y z
run 200000
Per MPI rank memory allocation (min/avg/max) = 320.3 | 327.6 | 336.9 Mbytes
Step Atoms Temp Press PotEng KinEng TotEng Volume Density Lx Ly Lz 
       0    73155            0    7212.4117   -8131276.7            0   -8131276.7       686000    1.2065849           70           70          140 
     100    73155    47.715869   -723.06305   -8141019.2    10404.835   -8130614.4    689857.47     1.199838    70.130961    70.130961    140.26192 
     200    73155    76.026035    1304.2595   -8144680.7    16578.099   -8128102.6    691940.45    1.1962261    70.201476    70.201476    140.40295 
     300    73155    92.478242    1056.8948     -8144691    20165.637   -8124525.3    694778.57    1.1913396    70.297326    70.297326    140.59465 
     400    73155    106.00302    86.000752   -8143477.3    23114.825   -8120362.5     700560.4    1.1815073    70.491788    70.491788    140.98358 
     500    73155    125.79858    419.22302   -8142760.2    27431.409   -8115328.8    704545.98    1.1748236    70.625215    70.625215    141.25043 
     600    73155    143.75955    1130.9616   -8140829.6    31347.945   -8109481.7    707283.81    1.1702759    70.716579    70.716579    141.43316 
     700    73155      161.605     1203.569   -8138178.2    35239.292   -8102938.9    710538.46    1.1649154    70.824883    70.824883    141.64977 
     800    73155    180.84569    1238.2998   -8135220.3    39434.882   -8095785.4     713934.2    1.1593747     70.93753     70.93753    141.87506 
     900    73155    200.52746    592.77506   -8131826.3    43726.653   -8088099.7     717633.1    1.1533989    71.059829    71.059829    142.11966 
    1000    73155    220.86659    49.584854   -8128203.7    48161.766   -8080041.9     720764.8    1.1483874    71.163045    71.163045    142.32609 
    1100    73155     238.5117   -344.70415   -8123838.4    52009.428     -8071829    722852.22    1.1450712    71.231678    71.231678    142.46336 
    1200    73155    256.75471    715.53308   -8119710.6    55987.463   -8063723.2    724370.06    1.1426718      71.2815      71.2815      142.563 
    1300    73155    272.18165    95.474581   -8115400.2    59351.436   -8056048.8    725656.99    1.1406453    71.323689    71.323689    142.64738 
    1400    73155    285.26229    12.828908     -8111326    62203.776   -8049122.2    727190.79    1.1382394    71.373905    71.373905    142.74781 
    1500    73155    294.55295    455.96228   -8107462.4    64229.679   -8043232.7    728776.73    1.1357624    71.425754    71.425754    142.85151 
    1600    73155    301.41565   -582.92103   -8104436.3    65726.147   -8038710.1    730547.04    1.1330102    71.483542    71.483542    142.96708 
    1700    73155     305.3251    114.36286   -8102629.5    66578.635   -8036050.8     731628.5    1.1313354    71.518798    71.518798     143.0376 
    1800    73155    301.17865   -1090.8046   -8100947.3    65674.468   -8035272.8    732178.56    1.1304855    71.536717    71.536717    143.07343 
    1900    73155     299.0963   -254.30918   -8100308.1    65220.394   -8035087.8    731622.97     1.131344    71.518618    71.518618    143.03724 
    2000    73155    300.97874    531.72887   -8100444.9    65630.875     -8034814    730397.87    1.1332416    71.478676    71.478676    142.95735 
    2100    73155    299.77659     -203.261   -8100236.5    65368.738   -8034867.7    729242.91    1.1350364    71.440981    71.440981    142.88196 
    2200    73155    301.12204    1310.6707   -8100636.6    65662.124   -8034974.5    728957.42    1.1354809    71.431657    71.431657    142.86331 
    2300    73155    302.00327    199.04505   -8101449.6    65854.284   -8035595.3       729419    1.1347624     71.44673     71.44673    142.89346 
    2400    73155    301.49359    387.35571   -8102817.4    65743.142   -8037074.3    729970.53     1.133905    71.464733    71.464733    142.92947 
    2500    73155    297.49396   -32.835412   -8103720.6    64870.991   -8038849.6    731150.94    1.1320744    71.503233    71.503233    143.00647 
    2600    73155    296.56098     431.6929   -8104460.3    64667.547   -8039792.8    733537.01    1.1283919    71.580931    71.580931    143.16186 
    2700    73155    300.67933    456.52849   -8105263.4    65565.587   -8039697.8    736833.04    1.1233444    71.687984    71.687984    143.37597 
    2800    73155    301.77732    1684.0565   -8105459.6    65805.013   -8039654.6    740111.61    1.1183681    71.794152    71.794152     143.5883 
    2900    73155    299.93765    564.27125   -8105597.8    65403.857   -8040193.9    744442.57    1.1118618    71.933921    71.933921    143.86784 
    3000    73155    298.52382    1802.0133     -8105833    65095.561   -8040737.4     748872.5    1.1052846    72.076324    72.076324    144.15265 
    3100    73155    298.82514    645.76124   -8106124.4    65161.266   -8040963.1    753807.31    1.0980488    72.234297    72.234297    144.46859 
    3200    73155    298.64482    1990.6508   -8105906.6    65121.945   -8040784.6       758833    1.0907765    72.394472    72.394472    144.78894 
    3300    73155    298.89757    1328.8754   -8105262.3    65177.059   -8040085.2    764301.54    1.0829721     72.56796     72.56796    145.13592 
    3400    73155    301.63768     1760.557     -8104896    65774.564   -8039121.4    769754.76    1.0752999    72.740139    72.740139    145.48028 
    3500    73155    298.65854     878.1239   -8103758.9    65124.936     -8038634    774950.46    1.0680905    72.903433    72.903433    145.80687 
    3600    73155    298.71784    2149.9631   -8103090.6    65137.867   -8037952.7    780110.14    1.0610261    73.064874    73.064874    146.12975 
    3700    73155    299.63905    2031.9816   -8102201.6    65338.745   -8036862.9    785658.37    1.0535333    73.237681    73.237681    146.47536 
    3800    73155    302.03488     1631.758   -8101646.7    65861.176   -8035785.5    791101.44    1.0462846    73.406423    73.406423    146.81285 
    3900    73155    299.59772    2051.1504   -8100762.8    65329.733   -8035433.1       796646    1.0390026    73.577517    73.577517    147.15503 
    4000    73155    299.96918     690.9002   -8100390.7    65410.733     -8034980    802200.73    1.0318081    73.748131    73.748131    147.49626 
    4100    73155    300.50436    1971.6984   -8099794.7    65527.433   -8034267.3    808237.67    1.0241013    73.932666    73.932666    147.86533 
    4200    73155    299.28454    1740.5212   -8098985.4    65261.441   -8033723.9     813529.5    1.0174397    74.093669    74.093669    148.18734 
    4300    73155    299.67808    1580.9815   -8098299.7    65347.256   -8032952.4    819331.62    1.0102347    74.269399    74.269399     148.5388 
    4400    73155    301.99264    1368.9987   -8097932.5    65851.965   -8032080.5    825117.47    1.0031508    74.443811    74.443811    148.88762 
    4500    73155    302.20837    1231.6778   -8097776.4    65899.006   -8031877.4    830551.74    0.9965872    74.606883    74.606883    149.21377 
    4600    73155    299.59934    984.63197   -8097775.6    65330.086   -8032445.5    835378.99    0.9908284    74.751145    74.751145    149.50229 
    4700    73155     298.7088    1364.7978   -8098055.4    65135.896   -8032919.5     839291.8   0.98620913    74.867672    74.867672    149.73534 
    4800    73155    299.35528    1659.6855   -8098306.9    65276.867   -8033030.1    842270.42   0.98272148    74.956135    74.956135    149.91227 
    4900    73155    301.51794    428.16265   -8098812.1    65748.453   -8033063.7    845176.63   0.97934231    75.042247    75.042247    150.08449 
    5000    73155    299.93159    378.10873   -8098993.8    65402.536   -8033591.3     847859.4    0.9762435    75.121563    75.121563    150.24313 
    5100    73155    298.51379    321.69343   -8099198.8    65093.374   -8034105.4    850006.57   0.97377745    75.184924    75.184924    150.36985 
    5200    73155    299.11278    -371.7507   -8099206.3    65223.988   -8033982.3    851061.42    0.9725705    75.216012    75.216012    150.43202 
    5300    73155    300.43813   -147.96021     -8099118    65512.991     -8033605    851074.16   0.97255595    75.216387    75.216387    150.43277 
    5400    73155    299.89043   -288.34603   -8098925.4     65393.56   -8033531.8    850786.89   0.97288433    75.207923    75.207923    150.41585 
    5500    73155    300.65459     178.7909   -8099158.2    65560.193     -8033598    850273.02    0.9734723    75.192779    75.192779    150.38556 
    5600    73155    300.23898    564.15164   -8099319.5    65469.566   -8033849.9    849150.29    0.9747594    75.159669    75.159669    150.31934 
    5700    73155    299.85015   -859.93856   -8099558.9    65384.778   -8034174.1    847641.51   0.97649445    75.115127    75.115127    150.23025 
    5800    73155    297.77405   -146.52542   -8099373.4    64932.067   -8034441.4    845105.93   0.97942424    75.040154    75.040154    150.08031 
    5900    73155    301.00155   -168.82324   -8099700.3    65635.849   -8034064.5    842509.22   0.98244294    74.963218    74.963218    149.92644 
    6000    73155    299.90501   -659.58805   -8099289.2    65396.739   -8033892.5    839585.86   0.98586372    74.876414    74.876414    149.75283 
    6100    73155    300.58732   -704.26225   -8099432.3    65545.523   -8033886.7    836765.19   0.98918698    74.792469    74.792469    149.58494 
    6200    73155    299.84279    289.37593   -8099367.1    65383.173     -8033984    833717.23   0.99280331    74.701547    74.701547    149.40309 
    6300    73155    300.24504   -266.85957   -8099483.5    65470.886   -8034012.6    830456.88   0.99670103    74.604043    74.604043    149.20809 
    6400    73155    299.76928    99.933667   -8099354.3    65367.143   -8033987.2    827932.93   0.99973947    74.528387    74.528387    149.05677 
    6500    73155    300.90059   -367.85146   -8099309.8    65613.835   -8033695.9    825361.94    1.0028536    74.451162    74.451162    148.90232 
    6600    73155    301.01353   -598.78911   -8099342.1    65638.461   -8033703.6     822378.6    1.0064917     74.36135     74.36135     148.7227 
    6700    73155    300.91173     433.7129   -8099964.1    65616.264   -8034347.8    819444.73    1.0100953    74.272816    74.272816    148.54563 
    6800    73155    300.48912    -625.0205   -8100692.7     65524.11   -8035168.6    817235.19    1.0128262       74.206       74.206      148.412 
    6900    73155    298.45073    575.38709   -8100861.6    65079.622   -8035781.9    815015.52    1.0155846    74.138756    74.138756    148.27751 
    7000    73155    298.61801    287.70834   -8100975.4      65116.1   -8035859.3    813296.65     1.017731      74.0866      74.0866     148.1732 
    7100    73155    299.96072   -693.89243   -8100827.2    65408.887   -8035418.4    812333.46    1.0189378    74.057341    74.057341    148.11468 
    7200    73155    301.73872   -278.03227     -8100731    65796.596   -8034934.4    811454.68    1.0200412    74.030626    74.030626    148.06125 
    7300    73155    301.81204    519.64029   -8101049.4    65812.584   -8035236.9    810430.53    1.0213303    73.999468    73.999468    147.99894 
    7400    73155    299.14457    79.783623   -8101400.8     65230.92   -8036169.8    810022.94    1.0218442    73.987061    73.987061    147.97412 
    7500    73155    297.44193    275.48629     -8101668    64859.645   -8036808.3    810264.09    1.0215401    73.994402    73.994402     147.9888 
    7600    73155    298.80731   -415.73174   -8101794.2    65157.378   -8036636.8    810611.91    1.0211017    74.004989    74.004989    148.00998 
    7700    73155    299.20124     1033.701     -8101231    65243.278   -8035987.7    810774.23    1.0208973    74.009928    74.009928    148.01986 
    7800    73155    302.45732   -686.27488   -8101332.1    65953.292   -8035378.8    811184.96    1.0203804    74.022423    74.022423    148.04485 
    7900    73155    301.07004   -270.82385   -8101307.5    65650.785   -8035656.8    811460.56    1.0200338    74.030805    74.030805    148.06161 
    8000    73155    298.05503   -115.50254     -8101206    64993.337   -8036212.7     811741.5    1.0196808    74.039348    74.039348     148.0787 
    8100    73155    299.07491    87.095155   -8101258.3     65215.73   -8036042.6    811577.75    1.0198866    74.034369    74.034369    148.06874 
    8200    73155     302.2908   -46.782428   -8101300.2    65916.981   -8035383.2    812116.11    1.0192105    74.050735    74.050735    148.10147 
    8300    73155     301.0014   -301.80673   -8101025.9    65635.817   -8035390.1    813079.99    1.0180022     74.08002     74.08002    148.16004 
    8400    73155    299.05118    1231.5097   -8101318.4    65210.555   -8036107.8     814419.6    1.0163277    74.120682    74.120682    148.24136 
    8500    73155    298.61321    74.733924   -8101696.1    65115.052   -8036581.1    816186.37    1.0141277    74.174242    74.174242    148.34848 
    8600    73155    298.52579   -73.303969   -8101421.4     65095.99   -8036325.4    818436.77    1.0113393     74.24235     74.24235     148.4847 
    8700    73155    299.90073   -7.5333578   -8100748.5    65395.807   -8035352.6    819982.29    1.0094331    74.289054    74.289054    148.57811 
    8800    73155    301.62263   -259.41435   -8100410.2    65771.281   -8034638.9    821437.39    1.0076449    74.332971    74.332971    148.66594 
    8900    73155    299.73837    725.88024   -8099884.9    65360.402   -8034524.5    822650.07    1.0061596    74.369532    74.369532    148.73906 
    9000    73155    301.06538    437.43234   -8100328.6    65649.768   -8034678.9    823677.56    1.0049044    74.400482    74.400482    148.80096 
    9100    73155    299.07024   -478.58709   -8100397.5    65214.711   -8035182.8    824922.75    1.0033876    74.437954    74.437954    148.87591 
    9200    73155    298.95768    -894.8635   -8100526.3    65190.167   -8035336.1    825515.77    1.0026668    74.455787    74.455787    148.91157 
    9300    73155    298.89694    -102.9391   -8100505.2    65176.922   -8035328.3    825144.98    1.0031173    74.444638    74.444638    148.88928 
    9400    73155    299.34277    335.68522   -8100400.2    65274.139     -8035126    824968.69    1.0033317    74.439336    74.439336    148.87867 
    9500    73155    302.19683    16.409133   -8100519.4    65896.491   -8034622.9    825341.24    1.0028788     74.45054     74.45054    148.90108 
    9600    73155    300.65263    141.29578   -8100096.9    65559.764   -8034537.1    825238.32    1.0030039    74.447445    74.447445    148.89489 
    9700    73155    299.92672    717.80931   -8100145.6    65401.474   -8034744.1    825021.97    1.0032669    74.440939    74.440939    148.88188 
    9800    73155    301.43093    -749.1497   -8100803.9     65729.48   -8035074.4    824590.42     1.003792    74.427957    74.427957    148.85591 
    9900    73155    299.58162   -121.68853   -8100994.3    65326.222   -8035668.1    823428.83     1.005208    74.392992    74.392992    148.78598 
   10000    73155    298.53447    499.47073   -8101050.1    65097.882   -8035952.2    822378.08    1.0064923    74.361335    74.361335    148.72267 
   10100    73155    300.05509    -360.9286   -8100980.4    65429.465     -8035551    821778.18    1.0072271    74.343249    74.343249     148.6865 
   10200    73155    302.10872     396.7538   -8100883.5    65877.278   -8035006.2    820708.36      1.00854    74.310974    74.310974    148.62195 
   10300    73155    300.58816    339.69474   -8100496.2    65545.706   -8034950.5    819428.02    1.0101159    74.272311    74.272311    148.54462 
   10400    73155    300.77107     1166.672   -8100871.7    65585.592   -8035286.1    818475.85     1.011291    74.243532    74.243532    148.48706 
   10500    73155    299.09012   -29.558817   -8101070.9    65219.046   -8035851.8    817538.86      1.01245     74.21519     74.21519    148.43038 
   10600    73155    298.44849    526.12059   -8101208.8    65079.133   -8036129.6    816694.21    1.0134971    74.189622    74.189622    148.37924 
   10700    73155    299.97922    -1.321511   -8101482.1    65412.921   -8036069.2    815950.45    1.0144209    74.167094    74.167094    148.33419 
   10800    73155    299.75243    53.445625   -8101185.2     65363.47   -8035821.8    814795.02    1.0158595    74.132069    74.132069    148.26414 
   10900    73155    300.77099    -345.7739   -8101127.4    65585.575   -8035541.8     813608.6    1.0173408    74.096071    74.096071    148.19214 
   11000    73155    301.27545   -620.08885   -8101199.7    65695.576   -8035504.1    812545.65    1.0186717    74.063789    74.063789    148.12758 
   11100    73155    300.54348   -8.7552976   -8101350.3    65535.964   -8035814.4    810882.28    1.0207613    74.013215    74.013215    148.02643 
   11200    73155    299.41235   -16.955157   -8101587.5    65289.313   -8036298.2    809402.99    1.0226269     73.96818     73.96818    147.93636 
   11300    73155    298.72598   -276.92003   -8101723.9    65139.643   -8036584.2    807485.84    1.0250548    73.909734    73.909734    147.81947 
   11400    73155    300.85072    40.311118   -8101900.2    65602.959   -8036297.2    806005.23    1.0269378    73.864533    73.864533    147.72907 
   11500    73155    300.05476   -843.17501   -8101596.9    65429.395   -8036167.5    804895.24     1.028354     73.83061     73.83061    147.66122 
   11600    73155    300.17859   -1894.7262   -8101660.5    65456.397   -8036204.1    804094.33    1.0293783    73.806113    73.806113    147.61223 
   11700    73155    300.75612   -182.57988   -8101790.9    65582.331   -8036208.5    802949.74    1.0308456    73.771077    73.771077    147.54215 
   11800    73155    300.29426    58.673935   -8101928.4    65481.618   -8036446.8    801895.15    1.0322013    73.738766    73.738766    147.47753 
   11900    73155    299.65004   -473.99125   -8102203.4    65341.142   -8036862.2    801261.38    1.0330178    73.719334    73.719334    147.43867 
   12000    73155    298.09103   -1098.8127   -8102208.1    65001.187     -8037207    799917.63    1.0347531    73.678101    73.678101     147.3562 
   12100    73155    301.02338   -652.34449   -8102659.6    65640.609     -8037019    798519.31    1.0365651    73.635144    73.635144    147.27029 
   12200    73155    300.36572    142.76529   -8102164.8    65497.202   -8036667.6    797222.67     1.038251    73.595266    73.595266    147.19053 
   12300    73155     301.2247   -431.72857   -8102312.4     65684.51   -8036627.9    796663.72    1.0389795    73.578062    73.578062    147.15612 
   12400    73155    300.11334   -473.43112   -8102448.3    65442.168   -8037006.1    796018.77    1.0398212    73.558202    73.558202     147.1164 
   12500    73155    298.98193   -564.38644   -8102535.5    65195.455   -8037340.1    795402.31    1.0406271    73.539208    73.539208    147.07842 
   12600    73155    299.82966   -51.263162   -8102706.1    65380.309   -8037325.8    794700.89    1.0415456    73.517585    73.517585    147.03517 
   12700    73155    299.96929    69.223291   -8102712.2    65410.757   -8037301.5    794165.64    1.0422476    73.501076    73.501076    147.00215 
   12800    73155    300.26577    148.91036   -8102616.8    65475.407   -8037141.4    793356.72    1.0433103    73.476112    73.476112    146.95222 
   12900    73155    301.32014    31.638289   -8102705.9    65705.322   -8037000.6    792311.48    1.0446867     73.44383     73.44383    146.88766 
   13000    73155    299.41936   -1508.2185     -8102568    65290.839   -8037277.1    791347.24    1.0459596    73.414024    73.414024    146.82805 
   13100    73155    299.42722    682.97951   -8102738.8    65292.554   -8037446.3    790334.33    1.0473001    73.382688    73.382688    146.76538 
   13200    73155    299.88742    223.48331     -8102611    65392.905   -8037218.1    789503.91    1.0484017    73.356978    73.356978    146.71396 
   13300    73155    301.16946   -1397.4224   -8102601.7    65672.463   -8036929.2    788670.97    1.0495089    73.331171    73.331171    146.66234 
   13400    73155       301.78   -402.59628   -8103040.3    65805.597   -8037234.7     787833.2     1.050625    73.305196    73.305196    146.61039 
   13500    73155    298.68761    216.63255   -8103235.2    65131.277     -8038104    787101.92    1.0516011    73.282508    73.282508    146.56502 
   13600    73155    298.27314    412.55775   -8103572.6    65040.898   -8038531.8    786603.97    1.0522668    73.267051    73.267051     146.5341 
   13700    73155    299.56078    389.42916   -8103519.5    65321.678   -8038197.9    786541.82    1.0523499    73.265121    73.265121    146.53024 
   13800    73155     301.3079   -160.27643   -8103177.9    65702.652   -8037475.2    786284.83    1.0526939    73.257141    73.257141    146.51428 
   13900    73155    301.72454    1294.0733   -8102783.8    65793.505   -8036990.3    785846.77    1.0532807    73.243534    73.243534    146.48707 
   14000    73155    301.44174    404.56385   -8102970.8    65731.836     -8037239    785703.08    1.0534733     73.23907     73.23907    146.47814 
   14100    73155    298.86239   -48.537728   -8102970.6    65169.388   -8037801.2    785699.72    1.0534778    73.238965    73.238965    146.47793 
   14200    73155    297.95274    936.73603   -8102852.1    64971.032   -8037881.1    785597.19    1.0536153     73.23578     73.23578    146.47156 
   14300    73155    300.50781   -756.44076     -8103024    65528.186   -8037495.8    785847.27      1.05328     73.24355     73.24355     146.4871 
   14400    73155    299.91771    1004.5443     -8102590    65399.511   -8037190.5    785932.29    1.0531661    73.246191    73.246191    146.49238 
   14500    73155    299.93573    811.33692   -8102601.4     65403.44     -8037198    785833.82     1.053298    73.243132    73.243132    146.48626 
   14600    73155    300.01932   -62.620867   -8102758.3    65421.666   -8037336.6    785488.62    1.0537609    73.232406    73.232406    146.46481 
   14700    73155     298.5506    527.78683   -8102641.1      65101.4   -8037539.7    785022.44    1.0543867    73.217915    73.217915    146.43583 
   14800    73155    300.83563    350.05125   -8102910.8    65599.669   -8037311.1    784042.42    1.0557046    73.187434    73.187434    146.37487 
   14900    73155    300.32098   -200.74624   -8102867.4    65487.447     -8037380    783382.41    1.0565941    73.166892    73.166892    146.33378 
   15000    73155    299.90027    634.05962   -8102950.7    65395.707     -8037555    782553.94    1.0577127     73.14109     73.14109    146.28218 
   15100    73155    301.62128    1043.6586   -8103534.3    65770.986   -8037763.3    782051.44    1.0583923    73.125431    73.125431    146.25086 
   15200    73155    298.99058    262.48953   -8103227.3    65197.342     -8038030     780883.6    1.0599752    73.089014    73.089014    146.17803 
   15300    73155    300.57107   -44.557025   -8103500.1    65541.981   -8037958.2    779623.49    1.0616884    73.049678    73.049678    146.09936 
   15400    73155    301.54583   -290.33424   -8103741.4    65754.535   -8037986.9    778362.14    1.0634089    73.010261    73.010261    146.02052 
   15500    73155    299.31755     271.6154   -8103459.2    65268.639   -8038190.6    776917.57    1.0653862    72.965067    72.965067    145.93013 
   15600    73155    298.25959    1220.1614   -8103301.5    65037.943   -8038263.6    776095.82    1.0665142    72.939332    72.939332    145.87866 
   15700    73155    299.82797    855.26741   -8103440.6    65379.941   -8038060.7    776113.58    1.0664898    72.939888    72.939888    145.87978 
   15800    73155    302.33307    739.70545   -8103825.6    65926.199   -8037899.4    776307.25    1.0662238    72.945955    72.945955    145.89191 
   15900    73155    299.56409   -49.793356   -8103713.5    65322.401   -8038391.1    776615.68    1.0658003    72.955615    72.955615    145.91123 
   16000    73155    299.17775    209.15333   -8104068.7    65238.154   -8038830.6    776841.74    1.0654902    72.962692    72.962692    145.92538 
   16100    73155    299.12137    285.76448   -8104018.8    65225.862     -8038793     775919.9     1.066756    72.933821    72.933821    145.86764 
   16200    73155    300.45373   -547.62417   -8103938.4    65516.393     -8038422       774625    1.0685393    72.893226    72.893226    145.78645 
   16300    73155    301.32908    343.83277   -8103838.4     65707.27   -8038131.2    774220.44    1.0690976    72.880534    72.880534    145.76107 
   16400    73155    300.90846    657.06625   -8103879.8    65615.551   -8038264.2    773882.26    1.0695648    72.869921    72.869921    145.73984 
   16500    73155    298.84945   -388.75086   -8103985.1    65166.566   -8038818.6    773871.64    1.0695795    72.869588    72.869588    145.73918 
   16600    73155    299.39314   -1268.9657   -8104350.9    65285.123   -8039065.8    773622.66    1.0699237    72.861772    72.861772    145.72354 
   16700    73155    299.44703    967.94801   -8104244.4    65296.874   -8038947.5    773440.24    1.0701761    72.856044    72.856044    145.71209 
   16800    73155    299.38274    387.14961   -8103828.7    65282.856   -8038545.8    772835.85     1.071013    72.837062    72.837062    145.67412 
   16900    73155    302.12818    945.89066   -8103908.4     65881.52   -8038026.9    772547.18    1.0714132    72.827993    72.827993    145.65599 
   17000    73155    301.59091    584.48356   -8103801.2    65764.365   -8038036.9    772373.01    1.0716548    72.822519    72.822519    145.64504 
   17100    73155    298.95574   -303.31052   -8103813.6    65189.745   -8038623.8    771961.41    1.0722262    72.809581    72.809581    145.61916 
   17200    73155    298.72268   -435.71628   -8104156.1    65138.924   -8039017.2    771488.36    1.0728836    72.794706    72.794706    145.58941 
   17300    73155    300.44386    327.45083   -8104407.4    65514.241   -8038893.1    770391.41    1.0744113    72.760188    72.760188    145.52038 
   17400    73155    300.58432   -1218.8785   -8104294.6     65544.87   -8038749.7    769708.83    1.0753641    72.738693    72.738693    145.47739 
   17500    73155    300.61184   -837.13817   -8104214.3    65550.871   -8038663.4    769502.23    1.0756528    72.732184    72.732184    145.46437 
   17600    73155    300.98159    -97.89778   -8104198.3    65631.498   -8038566.8    769865.25    1.0751456     72.74362     72.74362    145.48724 
   17700    73155    299.77567   -618.11364   -8104017.4    65368.537   -8038648.9    769891.66    1.0751087    72.744451    72.744451     145.4889 
   17800    73155    299.94268    145.28428   -8104309.6    65404.954   -8038904.7    769076.38    1.0762484    72.718765    72.718765    145.43753 
   17900    73155    298.25478   -187.13935   -8104082.2    65036.894   -8039045.3    768472.67    1.0770939    72.699732    72.699732    145.39946 
   18000    73155    300.35098   -410.74657   -8104033.4    65493.987   -8038539.4    768244.82    1.0774134    72.692546    72.692546    145.38509 
   18100    73155    301.89591   -909.66646   -8103943.7    65830.872   -8038112.8     767736.6    1.0781266    72.676513    72.676513    145.35303 
   18200    73155     302.0671   -1311.8931   -8104074.3    65868.201   -8038206.1    767337.07    1.0786879    72.663904    72.663904    145.32781 
   18300    73155    299.61042   -985.89644   -8104159.8    65332.502   -8038827.3    767135.47    1.0789714     72.65754     72.65754    145.31508 
   18400    73155    299.45424    53.388258     -8104728    65298.446   -8039429.5    766851.09    1.0793715    72.648561    72.648561    145.29712 
   18500    73155    298.77757    450.67587   -8104675.6    65150.893   -8039524.7    766255.97    1.0802098    72.629763    72.629763    145.25953 
   18600    73155    300.64723    434.42508   -8104615.2    65558.587   -8039056.6    766140.76    1.0803723    72.626122    72.626122    145.25224 
   18700    73155    301.64154   -361.71919   -8104357.7    65775.404   -8038582.3    766042.22    1.0805112    72.623009    72.623009    145.24602 
   18800    73155    299.58024    362.01015   -8104042.6    65325.922   -8038716.7    765595.75    1.0811414    72.608897    72.608897    145.21779 
   18900    73155    300.05805   -185.25798   -8104313.2    65430.112   -8038883.1    765842.33    1.0807933    72.616691    72.616691    145.23338 
   19000    73155    299.56257    140.50136     -8104468    65322.069     -8039146    766358.64    1.0800651    72.633006    72.633006    145.26601 
   19100    73155    299.78699    286.46163   -8104669.1    65371.005   -8039298.1    766091.59    1.0804416    72.624569    72.624569    145.24914 
   19200    73155    298.83713    550.12343   -8104234.2     65163.88   -8039070.4     765925.2    1.0806763    72.619311    72.619311    145.23862 
   19300    73155     300.7847    706.53874   -8104179.1    65588.563   -8038590.5    766056.34    1.0804913    72.623455    72.623455    145.24691 
   19400    73155    300.66867    187.10116   -8104161.6    65563.263   -8038598.3    765938.41    1.0806577    72.619728    72.619728    145.23946 
   19500    73155    299.43276   -1342.3781   -8104132.4    65293.763   -8038838.6    765592.94    1.0811453    72.608808    72.608808    145.21762 
   19600    73155    299.81265   -181.12342   -8104441.5    65376.601   -8039064.9    765222.58    1.0816686    72.597098    72.597098     145.1942 
   19700    73155    299.62763    293.41771   -8104583.6    65336.254   -8039247.3    764675.68    1.0824422    72.579799    72.579799     145.1596 
   19800    73155    300.41208   -205.44368   -8104818.2    65507.311   -8039310.9    764053.03    1.0833243    72.560094    72.560094    145.12019 
   19900    73155    299.90018    145.13047   -8104705.7    65395.687     -8039310     763062.3    1.0847309    72.528718    72.528718    145.05744 
   20000    73155    299.74882     606.5177   -8104562.3    65362.681   -8039199.6    762653.86    1.0853118    72.515775    72.515775    145.03155 
   20100    73155    300.34996    1589.3558   -8104797.7    65493.766     -8039304    762396.16    1.0856787    72.507606    72.507606    145.01521 
   20200    73155    298.55242    1063.9338   -8104661.6    65101.796   -8039559.8    762239.93    1.0859012    72.502653    72.502653    145.00531 
   20300    73155    301.23533   -211.16198   -8105075.1    65686.828   -8039388.3    762713.58    1.0852268    72.517668    72.517668    145.03534 
   20400    73155    301.18583   -74.755596   -8105052.5    65676.033   -8039376.5    762128.96    1.0860593    72.499135    72.499135    144.99827 
   20500    73155    299.59366   -666.64218   -8104937.1    65328.848   -8039608.2    761422.55    1.0870669    72.476728    72.476728    144.95346 
   20600    73155    300.52011    132.63014   -8105254.2    65530.868   -8039723.3    760439.62     1.088472    72.445528    72.445528    144.89106 
   20700    73155    300.01336    902.32817   -8105091.7    65420.367   -8039671.3    760091.96    1.0889699    72.434486    72.434486    144.86897 
   20800    73155    300.54311    342.05345   -8105024.9    65535.883   -8039489.1    759987.05    1.0891202    72.431153    72.431153    144.86231 
   20900    73155    301.61144    85.179238   -8105229.8    65768.841     -8039461    760147.66    1.0888901    72.436255    72.436255    144.87251 
   21000    73155     299.5751   -543.98939   -8105123.9    65324.801   -8039799.1    759630.11    1.0896319    72.419812    72.419812    144.83962 
   21100    73155    301.22394     581.4761   -8105795.8    65684.345   -8040111.5    758541.94    1.0911951    72.385215    72.385215    144.77043 
   21200    73155    298.63957     1143.354     -8105652    65120.801   -8040531.2    757457.06     1.092758     72.35069     72.35069    144.70138 
   21300    73155    298.95495   -53.232625   -8105765.2    65189.573   -8040575.6    756469.43    1.0941846     72.31923     72.31923    144.63846 
   21400    73155    300.15883    170.74498   -8105688.4    65452.087   -8040236.3    756006.67    1.0948544     72.30448     72.30448    144.60896 
   21500    73155    300.58275   -1099.0684   -8105298.2    65544.526   -8039753.7    755688.65    1.0953152    72.294341    72.294341    144.58868 
   21600    73155    303.12443   -68.021561   -8105528.9    66098.761   -8039430.2     754994.2    1.0963226    72.272188    72.272188    144.54438 
   21700    73155    301.27351   -187.53937     -8105382    65695.152   -8039686.8    753906.15    1.0979049    72.237454    72.237454    144.47491 
   21800    73155    299.09671     131.1837     -8105575    65220.483   -8040354.5    753649.37    1.0982789    72.229252    72.229252     144.4585 
   21900    73155     297.8933    55.976223   -8105682.9     64958.07   -8040724.8     753644.7    1.0982857    72.229103    72.229103    144.45821 
   22000    73155    299.15146    274.61922   -8105768.8    65232.423   -8040536.3    753600.47    1.0983502    72.227689    72.227689    144.45538 
   22100    73155    300.31419    689.49695   -8105624.2    65485.964   -8040138.3    753566.68    1.0983995     72.22661     72.22661    144.45322 
   22200    73155    299.08571    -32.04705   -8105067.3    65218.085   -8039849.2    753319.73    1.0987595    72.218719    72.218719    144.43744 
   22300    73155    302.35379    466.99213   -8105601.2    65930.716   -8039670.5    753339.39    1.0987309    72.219347    72.219347    144.43869 
   22400    73155    300.82179   -970.29856   -8105668.8    65596.652   -8040072.1    753344.53    1.0987234    72.219512    72.219512    144.43902 
   22500    73155    297.78907    255.19407   -8105315.5    64935.341   -8040380.2    753113.92    1.0990598    72.212142    72.212142    144.42428 
   22600    73155    299.47176    623.38434   -8105433.4    65302.267   -8040131.1    752966.85    1.0992745    72.207441    72.207441    144.41488 
   22700    73155    300.46911    198.63382   -8105319.9    65519.747   -8039800.1    752805.29    1.0995104    72.202276    72.202276    144.40455 
   22800    73155     299.5285    404.23561   -8104917.8    65314.639   -8039603.2    752655.96    1.0997285    72.197502    72.197502      144.395 
   22900    73155     300.6791   -498.66946     -8105270    65565.537   -8039704.4    752459.43    1.1000158    72.191217    72.191217    144.38243 
   23000    73155    300.12306    1418.2527   -8105596.4    65444.287   -8040152.1    752190.61    1.1004089    72.182619    72.182619    144.36524 
   23100    73155    300.11924    784.30167   -8105865.7    65443.455   -8040422.2    751556.87    1.1013368    72.162342    72.162342    144.32468 
   23200    73155     299.1379   -603.99198   -8105834.4    65229.465   -8040604.9    750762.77    1.1025017    72.136917    72.136917    144.27383 
   23300    73155    299.07261    200.63568   -8105736.9    65215.229   -8040521.6    750381.91    1.1030613    72.124717    72.124717    144.24943 
   23400    73155    299.91862    770.26198   -8105498.7    65399.708     -8040099    750171.96      1.10337     72.11799     72.11799    144.23598 
   23500    73155    301.64896    1395.8782   -8105335.5    65777.022   -8039558.5    749896.05     1.103776    72.109147    72.109147    144.21829 
   23600    73155    301.37257   -746.96479     -8105381    65716.753   -8039664.3    749092.98    1.1049593    72.083397    72.083397    144.16679 
   23700    73155    299.55547    1450.2861   -8105546.8    65320.521   -8040226.3    747840.44    1.1068099    72.043198    72.043198     144.0864 
   23800    73155    298.68198   -699.83736   -8105689.5    65130.048   -8040559.4    747327.45    1.1075697    72.026721    72.026721    144.05344 
   23900    73155    299.14556    302.19844   -8105642.5    65231.137   -8040411.4     746970.7    1.1080987    72.015258    72.015258    144.03052 
   24000    73155    301.42359   -703.78278   -8105808.5    65727.879   -8040080.6    747025.73     1.108017    72.017027    72.017027    144.03405 
   24100    73155    300.69923    701.99569   -8105587.9    65569.926   -8040017.9    746598.51    1.1086511    72.003295    72.003295    144.00659 
   24200    73155    299.70252   -912.75776   -8105586.9    65352.586   -8040234.3    746204.74    1.1092361    71.990635    71.990635    143.98127 
   24300    73155    300.71065   -232.35998   -8106094.1    65572.417   -8040521.7    746231.21    1.1091968    71.991486    71.991486    143.98297 
   24400    73155    299.25854   -737.90071   -8105975.2    65255.773   -8040719.4     745815.8    1.1098146    71.978125    71.978125    143.95625 
   24500    73155    299.67631   -1121.0866   -8105818.5    65346.869   -8040471.7    745374.71    1.1104713    71.963932    71.963932    143.92786 
   24600    73155    300.81616   -503.99312   -8105785.4    65595.425     -8040190    745402.65    1.1104297    71.964831    71.964831    143.92966 
   24700    73155    300.38653    953.05644   -8105725.1     65501.74   -8040223.4    745218.89    1.1107035    71.958917    71.958917    143.91783 
   24800    73155    300.00442   -7.4061257   -8105872.2    65418.418   -8040453.8    745332.17    1.1105347    71.962563    71.962563    143.92513 
   24900    73155    299.04794    592.66199   -8106179.9    65209.849   -8040970.1    745875.09    1.1097263    71.980032    71.980032    143.96006 
   25000    73155    298.29522    -2274.995     -8106056    65045.712   -8041010.3    745980.66    1.1095693    71.983428    71.983428    143.96686 
   25100    73155    300.09042    157.63132   -8105856.4    65437.171   -8040419.2    745446.47    1.1103644    71.966242    71.966242    143.93248 
   25200    73155    300.14221    -384.3134     -8105497    65448.464   -8040048.6    744963.26    1.1110846    71.950688    71.950688    143.90138 
   25300    73155     299.9825   -377.90088   -8105517.6    65413.637     -8040104    744467.88     1.111824    71.934737    71.934737    143.86947 
   25400    73155    300.66063   -661.04229   -8106124.1    65561.508   -8040562.6    744237.86    1.1121676    71.927327    71.927327    143.85465 
   25500    73155    298.88076   -920.86284   -8106257.1    65173.394   -8041083.7    744298.31    1.1120773    71.929274    71.929274    143.85855 
   25600    73155    299.39171   -219.56508   -8106393.5     65284.81   -8041108.7    743897.02    1.1126772    71.916345    71.916345    143.83269 
   25700    73155    300.83662    1315.6102   -8106357.7    65599.885   -8040757.9    743134.08    1.1138195    71.891751    71.891751     143.7835 
   25800    73155     300.9579    2167.9021     -8106326    65626.332   -8040699.7    742787.88    1.1143386    71.880585    71.880585    143.76117 
   25900    73155     299.8593    316.62268   -8106162.4    65386.773   -8040775.6    742978.54    1.1140527    71.886735    71.886735    143.77347 
   26000    73155    299.81866    65.245467   -8106092.7    65377.911   -8040714.8    742378.08    1.1149538    71.867364    71.867364    143.73473 
   26100    73155     301.2846   -67.727083   -8106355.4    65697.571   -8040657.8    741717.22    1.1159472    71.846032    71.846032    143.69206 
   26200    73155    299.61291    289.34614   -8106298.6    65333.046   -8040965.5    741366.49    1.1164751    71.834706    71.834706    143.66941 
   26300    73155    297.95179    2075.3048   -8106113.5    64970.825   -8041142.7    741732.99    1.1159234    71.846541    71.846541    143.69308 
   26400    73155     299.8977   -287.19237     -8106222    65395.145   -8040826.8    742009.44    1.1155077    71.855466    71.855466    143.71093 
   26500    73155    300.37807    106.50576   -8106017.2    65499.894   -8040517.3    741973.58    1.1155616    71.854309    71.854309    143.70862 
   26600    73155    299.94119   -561.58973   -8105853.3    65404.629   -8040448.6    741846.18    1.1157532    71.850196    71.850196    143.70039 
   26700    73155    299.90328   -489.93969   -8106213.1    65396.363   -8040816.8     741487.7    1.1162926    71.838621    71.838621    143.67724 
   26800    73155    298.68433   -476.76013   -8106471.2    65130.561   -8041340.6    741468.75    1.1163211    71.838009    71.838009    143.67602 
   26900    73155    298.22375    57.433334   -8106460.7    65030.128   -8041430.6    741640.75    1.1160622    71.843563    71.843563    143.68713 
   27000    73155    299.11686    975.69499   -8106189.2    65224.877   -8040964.3    741682.19    1.1159999    71.844901    71.844901     143.6898 
   27100    73155    300.98094    637.15208   -8106103.4    65631.354   -8040472.1    741339.91    1.1165151    71.833847    71.833847    143.66769 
   27200    73155    300.09387    975.90588   -8105989.7    65437.922   -8040551.8    740304.74    1.1180764    71.800397    71.800397    143.60079 
   27300    73155    299.56385    1925.9898   -8106263.8    65322.348   -8040941.5    739193.95    1.1197565    71.764468    71.764468    143.52894 
   27400    73155    298.30078   -269.40517   -8106261.5    65046.926   -8041214.6    738471.11    1.1208526    71.741068    71.741068    143.48214 
   27500    73155    299.12517    939.45512   -8106429.9    65226.691   -8041203.2    738409.47    1.1209461    71.739072    71.739072    143.47814 
   27600    73155    300.49927   -1001.8946   -8106558.3    65526.324     -8041032    739003.79    1.1200446    71.758314    71.758314    143.51663 
   27700    73155    300.84897    594.72188   -8106374.9    65602.578   -8040772.3    739728.46    1.1189474    71.781761    71.781761    143.56352 
   27800    73155    300.18489   -316.34013   -8106021.3     65457.77   -8040563.5    739659.11    1.1190523    71.779518    71.779518    143.55904 
   27900    73155    300.30889    806.60695   -8106168.9    65484.809   -8040684.1    739215.38     1.119724    71.765162    71.765162    143.53032 
   28000    73155    298.79699    748.47884   -8106287.6    65155.128   -8041132.5    738984.36    1.1200741    71.757685    71.757685    143.51537 
   28100    73155    300.49662   -532.07014   -8106909.1    65525.745   -8041383.4     739350.2    1.1195199    71.769524    71.769524    143.53905 
   28200    73155    299.80608   -696.38694   -8106809.3    65375.169   -8041434.1    739547.56    1.1192211     71.77591     71.77591    143.55182 
   28300    73155    299.06389    663.38163     -8106341    65213.328   -8041127.7    739354.92    1.1195127    71.769677    71.769677    143.53935 
   28400    73155    300.59839   -467.21111   -8106158.7    65547.937   -8040610.8    738956.43    1.1201164     71.75678     71.75678    143.51356 
   28500    73155     302.0756   -391.83029     -8106191    65870.056   -8040320.9    738306.55    1.1211024    71.735739    71.735739    143.47148 
   28600    73155    300.81742    1076.5237   -8106131.7    65595.699     -8040536    737974.73    1.1216065     71.72499     71.72499    143.44998 
   28700    73155    299.19832   -379.95863   -8106275.7    65242.641     -8041033    737853.71    1.1217904    71.721069    71.721069    143.44214 
   28800    73155    298.51218   -103.78221   -8106199.4    65093.022   -8041106.4    738022.52    1.1215338    71.726539    71.726539    143.45308 
   28900    73155    300.54103   -441.31406   -8106300.4     65535.43     -8040765    738209.86    1.1212492    71.732607    71.732607    143.46521 
   29000    73155    301.08028    622.54684   -8106359.3    65653.018   -8040706.3    737864.82    1.1217735    71.721429    71.721429    143.44286 
   29100    73155    300.71737    402.83295   -8106627.4    65573.882   -8041053.5     737363.3    1.1225365    71.705176    71.705176    143.41035 
   29200    73155    299.03197    921.77229   -8106818.2    65206.367   -8041611.8    737134.27    1.1228853    71.697751    71.697751     143.3955 
   29300    73155    298.06455   -398.35262   -8106766.8    64995.414   -8041771.3    736297.46    1.1241615     71.67061     71.67061    143.34122 
   29400    73155    301.46553    1248.0762   -8107106.2    65737.025   -8041369.1    735550.16    1.1253036    71.646355    71.646355    143.29271 
   29500    73155     300.2369    1185.8794   -8106537.6    65469.111   -8041068.5    735581.49    1.1252557    71.647372    71.647372    143.29474 
   29600    73155    300.15828    869.01355   -8106346.8    65451.969   -8040894.8    735697.44    1.1250783    71.651136    71.651136    143.30227 
   29700    73155    300.82478    1722.0699   -8106413.9    65597.304   -8040816.6    735813.91    1.1249002    71.654917    71.654917    143.30983 
   29800    73155    300.59429   -556.54693   -8106626.9    65547.043   -8041079.9    736021.84    1.1245824    71.661666    71.661666    143.32333 
   29900    73155    299.55591   -249.81936   -8106854.5    65320.617   -8041533.8     735808.8     1.124908    71.654752    71.654752     143.3095 
   30000    73155    299.39317   -527.29677   -8107017.5    65285.129   -8041732.3    735492.56    1.1253917    71.644485    71.644485    143.28897 
   30100    73155    299.23983   -415.98431   -8106790.8    65251.693   -8041539.1    735027.76    1.1261034    71.629389    71.629389    143.25878 
   30200    73155    300.46357    4.3381963     -8106771    65518.538   -8041252.4    734603.92    1.1267531    71.615619    71.615619    143.23124 
   30300    73155    301.39351     1676.417   -8107041.4    65721.319   -8041320.1    733900.13    1.1278336    71.592741    71.592741    143.18548 
   30400    73155    300.29378   -625.83555   -8107146.9    65481.515   -8041665.3    733656.86    1.1282076     71.58483     71.58483    143.16966 
   30500    73155     299.7052    -723.8601   -8107248.4    65353.171   -8041895.2    733036.68    1.1291621    71.564653    71.564653    143.12931 
   30600    73155    299.70882   -909.11834     -8107226    65353.959     -8041872       732436    1.1300881      71.5451      71.5451     143.0902 
   30700    73155    299.44618    539.79755   -8106991.3    65296.689   -8041694.6    731918.55    1.1308871    71.528248    71.528248     143.0565 
   30800    73155    300.66101    227.65364     -8106949    65561.593   -8041387.4    731425.56    1.1316493    71.512185    71.512185    143.02437 
   30900    73155    301.17556   -725.58328   -8107094.3    65673.795   -8041420.5     731518.2     1.131506    71.515204    71.515204    143.03041 
   31000    73155    299.23875   -107.90568   -8107131.7    65251.458   -8041880.2    731292.05    1.1318559    71.507833    71.507833    143.01567 
   31100    73155    298.74276   -402.33441   -8107312.5    65143.301   -8042169.2    731234.88    1.1319444     71.50597     71.50597    143.01194 
   31200    73155    298.82956    1778.7948   -8107269.3    65162.231   -8042107.1    730739.91    1.1327111    71.489832    71.489832    142.97966 
   31300    73155    299.88294    -255.8369   -8107312.1    65391.928   -8041920.1    730408.11    1.1332257     71.47901     71.47901    142.95802 
   31400    73155    300.51069   -1487.5304   -8107265.9    65528.813   -8041737.1    729564.29    1.1345364    71.451474    71.451474    142.90295 
   31500    73155    299.47358    662.74807   -8107019.5    65302.662   -8041716.9       728815    1.1357028    71.427004    71.427004    142.85401 
   31600    73155    300.46511   -1479.4186   -8107260.6    65518.875   -8041741.8     728820.2    1.1356947    71.427174    71.427174    142.85435 
   31700    73155    301.67201   -307.19618   -8107526.4    65782.049   -8041744.3     728581.6    1.1360666    71.419379    71.419379    142.83876 
   31800    73155    299.74033   -531.69915   -8107153.7    65360.831   -8041792.9    728648.75    1.1359619    71.421573    71.421573    142.84315 
   31900    73155    299.91571    -346.2238   -8107085.4    65399.074   -8041686.3    728659.38    1.1359453     71.42192     71.42192    142.84384 
   32000    73155    301.81211    377.81575   -8107428.3    65812.599   -8041615.7    728181.14    1.1366914    71.406291    71.406291    142.81258 
   32100    73155    300.46012    179.91819   -8107355.6    65517.787   -8041837.8    728208.54    1.1366486    71.407187    71.407187    142.81437 
   32200    73155    299.30799    325.24037   -8107476.5    65266.555   -8042209.9    728724.71    1.1358435    71.424055    71.424055    142.84811 
   32300    73155    297.27379    1697.6351     -8107293    64822.981     -8042470    728685.42    1.1359047    71.422771    71.422771    142.84554 
   32400    73155    300.09885   -1345.7831   -8107624.1    65439.009   -8042185.1    727866.31    1.1371831    71.395999    71.395999      142.792 
   32500    73155    300.43154   -1684.3006   -8107213.6    65511.555   -8041702.1    727309.31     1.138054    71.377782    71.377782    142.75556 
   32600    73155    300.75252    1417.6577   -8107074.7    65581.546   -8041493.1    726729.92    1.1389613    71.358824    71.358824    142.71765 
   32700    73155    301.07256   -1723.3279   -8107395.9    65651.333   -8041744.6    727001.56    1.1385357    71.367713    71.367713    142.73543 
   32800    73155    298.73591    325.89631     -8107383    65141.809   -8042241.2    726737.77     1.138949     71.35908     71.35908    142.71816 
   32900    73155    299.36285    786.82219   -8107490.5    65278.517     -8042212    726593.56     1.139175     71.35436     71.35436    142.70872 
   33000    73155    300.37893   -39.159877   -8107374.8    65500.082   -8041874.7    726165.25    1.1398469    71.340337    71.340337    142.68067 
   33100    73155     301.0315    377.68381   -8107201.5    65642.381   -8041559.1     726086.6    1.1399704    71.337761    71.337761    142.67552 
   33200    73155    301.00695   -215.46823   -8107348.5    65637.027   -8041711.5    726074.22    1.1399898    71.337356    71.337356    142.67471 
   33300    73155    300.21775   -848.22084     -8107589    65464.937   -8042124.1    725887.62    1.1402829    71.331244    71.331244    142.66249 
   33400    73155    298.08276   -329.39183   -8107382.9    64999.383   -8042383.5    725733.89    1.1405244    71.326208    71.326208    142.65242 
   33500    73155    300.18351    1485.2678     -8107544    65457.469   -8042086.5    725291.43    1.1412202     71.31171     71.31171    142.62342 
   33600    73155    302.03363    1060.3532   -8107568.5    65860.903   -8041707.6     724852.3    1.1419116    71.297315    71.297315    142.59463 
   33700    73155    302.38328   -210.82473   -8107627.2    65937.148   -8041690.1    725007.67    1.1416669    71.302409    71.302409    142.60482 
   33800    73155    299.72555    580.59166   -8107572.4    65357.607   -8042214.8     725263.1    1.1412648    71.310781    71.310781    142.62156 
   33900    73155    298.97487    975.54661   -8107883.9    65193.916     -8042690    725420.98    1.1410164    71.315955    71.315955    142.63191 
   34000    73155    298.36919     -107.426     -8107709    65061.843   -8042647.2    725411.75    1.1410309    71.315653    71.315653    142.63131 
   34100    73155    299.81976    271.97236   -8107512.8    65378.151   -8042134.7    724883.68    1.1418621    71.298344    71.298344    142.59669 
   34200    73155    300.27833    136.18208   -8107106.8    65478.146   -8041628.7    724464.07    1.1425235    71.284584    71.284584    142.56917 
   34300    73155    302.44786   -72.555383   -8107385.4    65951.229   -8041434.1    724182.22    1.1429682    71.275338    71.275338    142.55068 
   34400    73155    300.17368   -313.14102   -8107364.7    65455.327   -8041909.4       724236    1.1428833    71.277103    71.277103    142.55421 
   34500    73155    298.38381    307.08978   -8107784.2    65065.029   -8042719.2    724090.98    1.1431122    71.272345    71.272345    142.54469 
   34600    73155    297.59289    1016.7836   -8107926.1    64892.563   -8043033.6    723982.81     1.143283    71.268796    71.268796    142.53759 
   34700    73155    299.45957    1768.1165   -8107802.5    65299.608   -8042502.9    723760.88    1.1436336    71.261513    71.261513    142.52303 
   34800    73155    300.99597    103.25847   -8107430.1    65634.634   -8041795.5    723674.37    1.1437703    71.258673    71.258673    142.51735 
   34900    73155    302.34219   -62.229784   -8107463.8    65928.188   -8041535.7     723726.2    1.1436884    71.260374    71.260374    142.52075 
   35000    73155    300.27628   -1213.4594   -8107604.6    65477.699   -8042126.9    723565.52    1.1439423      71.2551      71.2551     142.5102 
   35100    73155    299.64137    1006.8824   -8108201.7    65339.252   -8042862.5    723075.75    1.1447172     71.23902     71.23902    142.47804 
   35200    73155    299.07992   -975.70769   -8108373.5    65216.822   -8043156.7       722501    1.1456278    71.220139    71.220139    142.44028 
   35300    73155    298.59642   -231.77936   -8108094.4    65111.392   -8042983.1    721490.57    1.1472322    71.186923    71.186923    142.37385 
   35400    73155    301.30523    271.30165   -8108143.4     65702.07   -8042441.3    721190.96    1.1477088    71.177068    71.177068    142.35414 
   35500    73155    301.71071   -418.18286   -8107949.5    65790.487     -8042159    720916.14    1.1481463    71.168026    71.168026    142.33605 
   35600    73155    300.59952   -151.04994   -8107854.5    65548.184   -8042306.3    720986.56    1.1480342    71.170343    71.170343    142.34069 
   35700    73155    299.36038   -158.84509     -8107937    65277.979     -8042659    720595.17    1.1486578    71.157462    71.157462    142.31492 
   35800    73155    298.34633   -552.03386     -8107949    65056.858   -8042892.1    720286.68    1.1491497    71.147306    71.147306    142.29461 
   35900    73155    299.08443    -1341.791     -8107886    65217.806   -8042668.2     720536.7     1.148751    71.155537    71.155537    142.31107 
   36000    73155    301.28467   -340.38555   -8108131.3    65697.585   -8042433.7    720640.09    1.1485862    71.158941    71.158941    142.31788 
   36100    73155    300.15852   -834.59803   -8107916.5     65452.02   -8042464.5    720757.61    1.1483989    71.162809    71.162809    142.32562 
   36200    73155    299.64479   -519.89278     -8108111    65339.998     -8042771    721087.68    1.1478732     71.17367     71.17367    142.34734 
   36300    73155    299.43539   -526.10174   -8108186.1    65294.336   -8042891.7    721512.85    1.1471968    71.187656    71.187656    142.37531 
   36400    73155    299.92955   -897.98934   -8107975.3    65402.092   -8042573.2    722041.41     1.146357    71.205035    71.205035    142.41007 
   36500    73155     300.4383    1065.7604   -8107762.9    65513.029   -8042249.9     721673.4    1.1469416    71.192935    71.192935    142.38587 
   36600    73155    301.89314   -655.60434   -8107884.3    65830.269   -8042054.1    721360.63    1.1474389    71.182649    71.182649     142.3653 
   36700    73155    301.06076   -1179.9853   -8108034.4     65648.76   -8042385.7    721217.56    1.1476665    71.177943    71.177943    142.35589 
   36800    73155     297.7635   -598.04754     -8107861    64929.766   -8042931.2    721037.79    1.1479526    71.172029    71.172029    142.34406 
   36900    73155    299.34554   -1624.5841     -8108323    65274.742   -8043048.3    721316.27    1.1475094     71.18119     71.18119    142.36238 
   37000    73155     298.5259   -357.75827   -8107874.9    65096.013   -8042778.9    721199.35    1.1476955    71.177344    71.177344    142.35469 
   37100    73155    300.53787    -1507.327     -8107850     65534.74   -8042315.3    720857.71    1.1482394    71.166103    71.166103    142.33221 
   37200    73155    301.08216   -743.45882   -8107763.5    65653.427   -8042110.1    720806.79    1.1483205    71.164427    71.164427    142.32885 
   37300    73155     300.5382    1016.6485   -8107725.2    65534.812   -8042190.4    720784.48    1.1483561    71.163693    71.163693    142.32739 
   37400    73155     300.4381    -2179.807   -8108112.9    65512.985   -8042599.9       721113    1.1478329    71.174503    71.174503    142.34901 
   37500    73155    298.95495    308.91623   -8108282.8    65189.571   -8043093.2    720653.81    1.1485643    71.159392    71.159392    142.31878 
   37600    73155    299.63421    -45.91463   -8108302.5    65337.691   -8042964.8    720434.23    1.1489144    71.152164    71.152164    142.30433 
   37700    73155    300.98961    79.677225   -8108141.7    65633.245   -8042508.4     720254.2    1.1492015    71.146237    71.146237    142.29247 
   37800    73155     301.9602   -779.54976   -8108106.6    65844.891   -8042261.7     720257.6    1.1491961    71.146349    71.146349     142.2927 
   37900    73155    301.97198    486.06914   -8108248.2    65847.459   -8042400.8    719971.78    1.1496523    71.136937    71.136937    142.27387 
   38000    73155    299.02266   -542.93478     -8108128    65204.337   -8042923.7    719927.12    1.1497236    71.135466    71.135466    142.27093 
   38100    73155    299.36955   -10.605249   -8108366.6    65279.978   -8043086.6    720081.97    1.1494764    71.140566    71.140566    142.28113 
   38200    73155    298.56292   -14.322872   -8108031.7    65104.086   -8042927.6    720123.51    1.1494101    71.141933    71.141933    142.28387 
   38300    73155    301.00091   -1335.6958     -8108143    65635.711   -8042507.3    719849.38    1.1498478    71.132905    71.132905    142.26581 
   38400    73155    300.85625     945.4676   -8107896.6    65604.166   -8042292.4    719521.44    1.1503719    71.122101    71.122101     142.2442 
   38500    73155    300.33152    709.02522   -8107917.7    65489.743     -8042428     719155.2    1.1509577    71.110032    71.110032    142.22006 
   38600    73155    299.20872    622.17588   -8107974.5    65244.909   -8042729.6    718998.03    1.1512093    71.104852    71.104852     142.2097 
   38700    73155    299.21308   -1263.5459   -8108142.7    65245.858   -8042896.8     718845.1    1.1514542     71.09981     71.09981    142.19962 
   38800    73155    299.17028   -1915.9889   -8108227.4    65236.527   -8042990.9    718807.04    1.1515152    71.098555    71.098555    142.19711 
   38900    73155    299.46149    1475.0722   -8108110.2    65300.027   -8042810.2    718605.89    1.1518375    71.091923    71.091923    142.18385 
   39000    73155    302.40622   -104.08975   -8108514.4    65942.149   -8042572.2    718591.45    1.1518607    71.091446    71.091446    142.18289 
   39100    73155    301.16216   -177.65914   -8108357.9    65670.871     -8042687    718029.47    1.1527622    71.072909    71.072909    142.14582 
   39200    73155    299.19505    924.03516   -8108011.7    65241.928   -8042769.7    717657.36    1.1533599    71.060629    71.060629    142.12126 
   39300    73155    301.18871    76.806327   -8108397.3    65676.661   -8042720.6    717286.64     1.153956    71.048391    71.048391    142.09678 
   39400    73155    298.78454   -2195.6641     -8107995    65152.414   -8042842.6    717408.36    1.1537602     71.05241     71.05241    142.10482 
   39500    73155    299.50119   -1358.4256   -8108219.9    65308.684   -8042911.2    717324.26    1.1538955    71.049633    71.049633    142.09927 
   39600    73155    298.19918   -2225.7418   -8107993.6    65024.769   -8042968.9    717724.15    1.1532526    71.062834    71.062834    142.12567 
   39700    73155    300.36397    575.87646   -8108252.7     65496.82   -8042755.9    717856.33    1.1530402    71.067196    71.067196    142.13439 
   39800    73155    300.62533    165.37532     -8108056    65553.813   -8042502.2    717647.27    1.1533761    71.060296    71.060296    142.12059 
   39900    73155    301.22371   -36.612194   -8108186.5    65684.294   -8042502.2     717397.4    1.1537779    71.052048    71.052048     142.1041 
   40000    73155    299.57153    -1389.903   -8108181.6    65324.022   -8042857.5    717155.05    1.1541678    71.044046    71.044046    142.08809 
   40100    73155    299.48964   -1082.9505   -8108365.2    65306.165   -8043059.1    716665.35    1.1549564    71.027872    71.027872    142.05574 
   40200    73155    297.88347    1014.2183   -8108119.3    64955.926   -8043163.4    716160.28    1.1557709    71.011183    71.011183    142.02237 
   40300    73155    299.31243    709.21497   -8108248.1    65267.523   -8042980.6    715503.46    1.1568319    70.989467    70.989467    141.97893 
   40400    73155    299.60224   -32.668141   -8108016.8    65330.719     -8042686    715198.55    1.1573251    70.979381    70.979381    141.95876 
   40500    73155    300.28124   -825.49194   -8107941.9     65478.78   -8042463.2    715141.88    1.1574168    70.977507    70.977507    141.95501 
   40600    73155    300.46887   -123.45531   -8107992.4    65519.695   -8042472.7    715250.89    1.1572404    70.981113    70.981113    141.96223 
   40700    73155    300.27482   -743.25367   -8108087.5    65477.379   -8042610.1    715491.15    1.1568518     70.98906     70.98906    141.97812 
   40800    73155    298.48371   -806.44884   -8107943.2    65086.814   -8042856.3    715722.55    1.1564778    70.996712    70.996712    141.99342 
   40900    73155    299.02053   -1538.9625   -8108036.3    65203.872   -8042832.4    716081.83    1.1558976    71.008589    71.008589    142.01718 
   41000    73155    300.53822    89.621719   -8108218.5    65534.818   -8042683.7     716113.2    1.1558469    71.009626    71.009626    142.01925 
   41100    73155    301.07041   -398.25562   -8108189.5    65650.865   -8042538.7    715955.56    1.1561014    71.004416    71.004416    142.00883 
   41200    73155    300.41824     222.8865   -8108085.2    65508.654   -8042576.5    715839.95    1.1562881    71.000593    71.000593    142.00119 
   41300    73155    299.35976   -12.766425   -8108138.4    65277.844   -8042860.5    715625.25     1.156635    70.993494    70.993494    141.98699 
   41400    73155     299.1937    155.55042   -8108339.1    65241.634   -8043097.5    715398.27     1.157002    70.985988    70.985988    141.97198 
   41500    73155    299.53769    1250.4623   -8108228.1    65316.643   -8042911.4    714828.82    1.1579237    70.967148    70.967148     141.9343 
   41600    73155    300.62632   -2375.7268   -8108142.4    65554.028   -8042588.4    714799.17    1.1579717    70.966167    70.966167    141.93233 
   41700    73155    299.28289    52.410072   -8107845.1    65261.081     -8042584    714735.38    1.1580751    70.964056    70.964056    141.92811 
   41800    73155    300.23146    431.37986   -8108216.8    65467.926   -8042748.9    714214.95    1.1589189    70.946827    70.946827    141.89365 
   41900    73155    299.60536    -1348.278   -8108306.5    65331.398   -8042975.1    714220.19    1.1589104    70.947001    70.947001      141.894 
   42000    73155    300.10914    600.35237   -8108544.5    65441.253   -8043103.2    713871.78    1.1594761    70.935463    70.935463    141.87093 
   42100    73155    298.43513   -630.98257     -8108305     65076.22   -8043228.7    714052.22    1.1591831    70.941439    70.941439    141.88288 
   42200    73155     298.7981    32.009718   -8108311.1     65155.37   -8043155.7    714347.94    1.1587032    70.951231    70.951231    141.90246 
   42300    73155    300.06711     1373.855   -8108274.7    65432.088   -8042842.7    715297.39    1.1571652    70.982651    70.982651     141.9653 
   42400    73155    300.78302   -43.014944   -8108221.6    65588.196   -8042633.4    715953.07    1.1561054    71.004333    71.004333    142.00867 
   42500    73155    300.87766    989.71833   -8108267.8    65608.835   -8042658.9    716174.19    1.1557485    71.011642    71.011642    142.02328 
   42600    73155    299.26429    2.2007023   -8108185.1    65257.027   -8042928.1     715889.1    1.1562087    71.002219    71.002219    142.00444 
   42700    73155    299.73101   -224.58381   -8108346.3    65358.799   -8042987.5    715494.38    1.1568466    70.989167    70.989167    141.97833 
   42800    73155    300.45794    164.39327   -8108511.8     65517.31   -8042994.5    715126.34     1.157442    70.976993    70.976993    141.95399 
   42900    73155    300.26924   -306.71978   -8108541.7    65476.163   -8043065.5    714861.09    1.1578714    70.968216    70.968216    141.93643 
   43000    73155    299.18425   -800.06617     -8108350    65239.572   -8043110.4    715297.75    1.1571646    70.982663    70.982663    141.96533 
   43100    73155    300.07766     285.6677   -8108434.9    65434.388   -8043000.5     715629.4    1.1566283    70.993632    70.993632    141.98726 
   43200    73155    301.16606   -643.97132   -8108415.9    65671.723   -8042744.2    715409.52    1.1569838     70.98636     70.98636    141.97272 
   43300    73155     300.3769    385.11234   -8108165.3    65499.639   -8042665.6    715169.02    1.1573729    70.978405    70.978405    141.95681 
   43400    73155    299.24962   -1219.4243   -8108205.5    65253.828   -8042951.7    714982.32    1.1576751    70.972227    70.972227    141.94445 
   43500    73155    299.11089    927.21031   -8108316.9    65223.577   -8043093.3    714211.21     1.158925    70.946704    70.946704    141.89341 
   43600    73155    301.21198   -2014.4335   -8108749.4    65681.735   -8043067.7       713487    1.1601014    70.922716    70.922716    141.84543 
   43700    73155    299.87339   -725.15397   -8108519.7    65389.846   -8043129.9    712799.97    1.1612195    70.899944    70.899944    141.79989 
   43800    73155    301.02652    562.28186   -8108688.4    65641.294   -8043047.1    712503.63    1.1617025    70.890117    70.890117    141.78023 
   43900    73155    300.54272   -122.57894   -8108564.7    65535.797   -8043028.9    712913.88     1.161034    70.903721    70.903721    141.80744 
   44000    73155    298.39877   -536.39735   -8108246.8    65068.291   -8043178.5    713109.38    1.1607157    70.910201    70.910201     141.8204 
   44100    73155    299.08411    491.26018   -8108309.5    65217.737   -8043091.7    712990.03      1.16091    70.906245    70.906245    141.81249 
   44200    73155    300.03858   -1051.4585   -8108528.9    65425.867   -8043103.1    712729.91    1.1613337    70.897621    70.897621    141.79524 
   44300    73155    298.13055    -537.0803   -8108324.4    65009.805   -8043314.6    712270.57    1.1620826    70.882387    70.882387    141.76477 
   44400    73155    299.19315    906.52272     -8108549    65241.513   -8043307.5    712138.42    1.1622982    70.878003    70.878003    141.75601 
   44500    73155    299.59851   -887.76907   -8108409.3    65329.904   -8043079.4    711986.34    1.1625465    70.872958    70.872958    141.74592 
   44600    73155    300.61578    737.95282   -8108461.2    65551.729   -8042909.5    711665.24     1.163071    70.862301    70.862301     141.7246 
   44700    73155    298.90232   -997.74117   -8108203.5    65178.096   -8043025.4    711209.08     1.163817    70.847158    70.847158    141.69432 
   44800    73155    300.03168   -384.95884   -8108479.7    65424.361   -8043055.4    710726.91    1.1646066    70.831144    70.831144    141.66229 
   44900    73155    300.33839   -10.176256   -8108660.2    65491.243     -8043169     710750.3    1.1645682    70.831921    70.831921    141.66384 
   45000    73155    299.62224   -28.427744   -8108713.4    65335.079   -8043378.3    711043.06    1.1640888    70.841645    70.841645    141.68329 
   45100    73155    299.21663    1115.7961   -8108619.6    65246.633   -8043372.9    711582.91    1.1632056    70.859569    70.859569    141.71914 
   45200    73155    300.53815    274.91938   -8108707.4      65534.8   -8043172.6    711758.44    1.1629187    70.865395    70.865395    141.73079 
   45300    73155    300.51936    816.41312   -8108645.3    65530.704   -8043114.6    711544.24    1.1632688    70.858285    70.858285    141.71657 
   45400    73155    299.82267    938.55848   -8108733.9    65378.785   -8043355.1    711564.37    1.1632359    70.858953    70.858953    141.71791 
   45500    73155    299.70845   -594.47595   -8108932.5    65353.879   -8043578.6    711865.03    1.1627446    70.868932    70.868932    141.73786 
   45600    73155    299.35554   -827.43992   -8108774.7    65276.923   -8043497.8    711986.62     1.162546    70.872967    70.872967    141.74593 
   45700    73155    300.96929    800.72119   -8108795.9    65628.815     -8043167    711818.94    1.1628199    70.867402    70.867402     141.7348 
   45800    73155    299.61836     1309.798   -8108457.7    65334.235   -8043123.5    711693.92    1.1630242    70.863253    70.863253    141.72651 
   45900    73155    301.44626   -101.75717   -8108954.7    65732.823   -8043221.9     711901.7    1.1626847    70.870149    70.870149     141.7403 
   46000    73155     300.8014    424.78321   -8109064.2    65592.206     -8043472    711440.86    1.1634379    70.854853    70.854853    141.70971 
   46100    73155    300.14815   -1105.4675   -8108981.9    65449.759   -8043532.2    711173.99    1.1638745    70.845992    70.845992    141.69198 
   46200    73155    299.47707   -191.96455   -8108693.9    65303.424   -8043390.5    711131.77    1.1639435    70.844591    70.844591    141.68918 
   46300    73155    301.04153    1002.5555   -8108832.2    65644.567   -8043187.6    710869.06    1.1643737    70.835866    70.835866    141.67173 
   46400    73155    300.12301   -751.33435   -8108555.9    65444.277   -8043111.7    710740.86    1.1645837    70.831607    70.831607    141.66321 
   46500    73155    300.77911    278.81607   -8108720.1    65587.345   -8043132.8    710276.49    1.1653451    70.816177    70.816177    141.63235 
   46600    73155     300.4705     1799.215   -8108922.2     65520.05   -8043402.2    710150.65    1.1655516    70.811995    70.811995    141.62399 
   46700    73155    299.76224    194.04629   -8109003.2    65365.607   -8043637.5    710403.86    1.1651362    70.820411    70.820411    141.64082 
   46800    73155    300.43038    408.54362   -8109015.3    65511.301     -8043504    711028.53    1.1641125    70.841162    70.841162    141.68232 
   46900    73155    300.03096    16.764955   -8108583.9    65424.204   -8043159.7    711503.19    1.1633359    70.856923    70.856923    141.71385 
   47000    73155    300.45136    -374.9499   -8108587.1    65515.877   -8043071.2    711866.18    1.1627427     70.86897     70.86897    141.73794 
   47100    73155     300.4382   -1554.9347   -8108714.2    65513.007   -8043201.2    711699.91    1.1630144    70.863452    70.863452     141.7269 
   47200    73155     300.3172    1439.5987   -8108646.4    65486.621   -8043159.8    711274.95    1.1637092    70.849345    70.849345    141.69869 
   47300    73155     299.4392    274.60091   -8108425.5    65295.167   -8043130.4    711298.53    1.1636707    70.850128    70.850128    141.70026 
   47400    73155     299.4227    915.72412   -8108551.2    65291.568   -8043259.6    711584.38    1.1632032    70.859617    70.859617    141.71923 
   47500    73155    299.92785    1547.9842   -8108823.3    65401.722   -8043421.5    712210.73    1.1621802    70.880402    70.880402     141.7608 
   47600    73155    300.70956    1116.9248   -8109094.9    65572.179   -8043522.7    712722.19    1.1613462    70.897365    70.897365    141.79473 
   47700    73155    299.74003    -607.7192     -8108980    65360.765   -8043619.3    712735.42    1.1613247    70.897804    70.897804    141.79561 
   47800    73155    299.47347   -1352.4314   -8108938.6    65302.639   -8043635.9    711897.21    1.1626921        70.87        70.87       141.74 
   47900    73155    299.88305   -371.52381   -8108870.9    65391.952     -8043479    711234.36    1.1637757    70.847997    70.847997    141.69599 
   48000    73155    299.53541    1105.8342   -8108549.5    65316.146   -8043233.4     710674.2    1.1646929    70.829393    70.829393    141.65879 
   48100    73155    301.08689   -676.76789   -8108722.1    65654.458   -8043067.6    710595.22    1.1648224    70.826769    70.826769    141.65354 
   48200    73155    300.48128   -831.54625   -8108837.1      65522.4   -8043314.7    710520.25    1.1649453    70.824278    70.824278    141.64856 
   48300    73155    298.88595   -693.15302   -8108758.5    65174.525   -8043583.9    711228.26    1.1637856    70.847795    70.847795    141.69559 
   48400    73155    298.59032    1545.4481   -8108682.7     65110.06   -8043572.6    711688.29    1.1630334    70.863066    70.863066    141.72613 
   48500    73155    298.65822   -738.06655   -8108423.4    65124.867   -8043298.5    711694.14    1.1630238    70.863261    70.863261    141.72652 
   48600    73155    300.16136   -1180.0725   -8108379.2     65452.64   -8042926.6    711426.89    1.1634607    70.854389    70.854389    141.70878 
   48700    73155    300.63716    1449.2343   -8108447.1    65556.391   -8042890.7    710948.18    1.1642441    70.838494    70.838494    141.67699 
   48800    73155    300.04632    289.52532   -8108625.8    65427.554   -8043198.2    710752.43    1.1645648    70.831992    70.831992    141.66398 
   48900    73155    300.63947   -1114.5998   -8109128.8    65556.895   -8043571.9    710340.56      1.16524    70.818307    70.818307    141.63661 
   49000    73155    300.44467   -910.73739   -8109484.7    65514.417   -8043970.2    710099.78    1.1656351    70.810304    70.810304    141.62061 
   49100    73155    299.76772    760.71795   -8109365.6    65366.803   -8043998.8    709559.43    1.1665228    70.792339    70.792339    141.58468 
   49200    73155    299.82993    1899.9911   -8108998.3    65380.368     -8043618    708937.83    1.1675456     70.77166     70.77166    141.54332 
   49300    73155     300.9277   -755.64461     -8108838    65619.745   -8043218.2    708810.96    1.1677546    70.767438    70.767438    141.53488 
   49400    73155    301.51901   -1183.7023   -8108848.5    65748.685   -8043099.9    709142.79    1.1672081     70.77848     70.77848    141.55696 
   49500    73155    299.81887    632.59775   -8108799.9    65377.958   -8043421.9    709517.64    1.1665915    70.790949    70.790949     141.5819 
   49600    73155    299.59179    -657.4758   -8109004.6    65328.439   -8043676.1    709809.36     1.166112    70.800649    70.800649     141.6013 
   49700    73155    300.67273    1699.6826   -8108990.3    65564.149   -8043426.2    709717.25    1.1662634    70.797587    70.797587    141.59517 
   49800    73155    300.78619   -123.29794   -8108826.7    65588.889   -8043237.8    710056.99    1.1657054    70.808882    70.808882    141.61776 
   49900    73155     300.5252   -1954.5517   -8108894.5    65531.978   -8043362.5    710375.42    1.1651828    70.819465    70.819465    141.63893 
   50000    73155    298.63813   -506.24501     -8108724    65120.487   -8043603.5    710213.46    1.1654485    70.814083    70.814083    141.62817 
   50100    73155    299.76844   -1109.2953   -8109002.5    65366.959   -8043635.6    709926.65    1.1659194    70.804549    70.804549     141.6091 
   50200    73155     301.0097   -311.32894   -8108959.6    65637.628   -8043321.9     709304.1    1.1669427    70.783846    70.783846    141.56769 
   50300    73155    300.19726   -1771.3106   -8108511.6    65460.468   -8043051.1    708996.96    1.1674482    70.773628    70.773628    141.54726 
   50400    73155    301.51144    200.43216   -8108697.5    65747.036   -8042950.5    708988.61     1.167462     70.77335     70.77335     141.5467 
   50500    73155    300.41699    642.00835   -8108938.4    65508.382     -8043430    709350.87    1.1668658    70.785402    70.785402     141.5708 
   50600    73155    299.56868   -111.23697   -8109084.2    65323.401   -8043760.8    709289.31     1.166967    70.783354    70.783354    141.56671 
   50700    73155    300.84362    284.37909   -8109102.5    65601.411   -8043501.1    709014.56    1.1674192    70.774214    70.774214    141.54843 
   50800    73155     301.5598    1256.3321   -8109023.7     65757.58   -8043266.1    709017.64    1.1674142    70.774316    70.774316    141.54863 
   50900    73155    300.40533    218.03366   -8109030.5    65505.838   -8043524.7    709204.05    1.1671073    70.780518    70.780518    141.56104 
   51000    73155    299.33123    203.91892   -8108986.5    65271.623   -8043714.9       709002    1.1674399    70.773796    70.773796    141.54759 
[...]
  187600    73155    299.89326   -158.63041   -8110550.3    65394.179   -8045156.1     691372.8    1.1972083    70.182273    70.182273    140.36455 
  187700    73155     300.6143    57.783839   -8110354.4    65551.406     -8044803    691538.72     1.196921    70.187887    70.187887    140.37577 
  187800    73155    301.22244     715.7001   -8110478.6    65684.016   -8044794.5    691610.97     1.196796    70.190331    70.190331    140.38066 
  187900    73155    299.44517  -0.21209784   -8110699.7    65296.467   -8045403.3    691733.56    1.1965839    70.194478    70.194478    140.38896 
  188000    73155    299.39217   -1208.2014   -8110998.2    65284.911   -8045713.3    691299.18    1.1973358    70.179782    70.179782    140.35956 
  188100    73155    298.74652    529.87111   -8110988.9    65144.122   -8045844.8    690887.03      1.19805    70.165832    70.165832    140.33166 
  188200    73155    300.31714   -364.63765   -8111054.1    65486.609   -8045567.5     690685.6    1.1983994    70.159013    70.159013    140.31803 
  188300    73155    301.80929    125.08407   -8111145.9    65811.983     -8045334    690714.13    1.1983499    70.159979    70.159979    140.31996 
  188400    73155    300.01754    226.99095   -8110936.9    65421.278   -8045515.7    690638.85    1.1984806     70.15743     70.15743    140.31486 
  188500    73155    298.89569   -75.279123   -8111235.3     65176.65   -8046058.7    690120.97    1.1993799    70.139889    70.139889    140.27978 
  188600    73155    298.23473    1348.4173   -8110997.4    65032.523   -8045964.9    689849.58    1.1998518    70.130694    70.130694    140.26139 
  188700    73155    299.61766    617.01897   -8110968.6    65334.082   -8045634.6    689966.76     1.199648    70.134665    70.134665    140.26933 
  188800    73155    300.25719    315.90687   -8110986.2    65473.537   -8045512.7    690272.99    1.1991158    70.145039    70.145039    140.29008 
  188900    73155    299.76695    499.23435   -8110983.4    65366.636   -8045616.8    690228.51    1.1991931    70.143532    70.143532    140.28706 
  189000    73155    299.75297   -94.755634   -8111207.9    65363.586   -8045844.3    690247.08    1.1991608    70.144161    70.144161    140.28832 
  189100    73155    298.49785    398.67083   -8111460.5    65089.897   -8046370.6     690355.9    1.1989718    70.147848    70.147848     140.2957 
  189200    73155    299.04788   -424.86518   -8111599.9    65209.835   -8046390.1    690307.89    1.1990551    70.146221    70.146221    140.29244 
  189300    73155    299.80032    -204.6667     -8111297    65373.911   -8045923.1    690375.27    1.1989381    70.148504    70.148504    140.29701 
  189400    73155    300.49484    584.56697   -8111236.8    65525.357   -8045711.5    690503.29    1.1987158    70.152839    70.152839    140.30568 
  189500    73155    300.31799   -1799.1782   -8111038.9    65486.794   -8045552.1    690319.17    1.1990356    70.146603    70.146603    140.29321 
  189600    73155    299.73074   -118.37257   -8110716.8    65358.739   -8045358.1    689749.54    1.2000258    70.127304    70.127304    140.25461 
  189700    73155    302.27076    1193.5518     -8111150     65912.61   -8045237.4    689438.57    1.2005671    70.116763    70.116763    140.23353 
  189800    73155    300.05955   -453.51126   -8111003.3    65430.439   -8045572.9    689599.48    1.2002869    70.122218    70.122218    140.24444 
  189900    73155    299.18253    -487.7266   -8111135.9    65239.198   -8045896.7    690026.58     1.199544    70.136691    70.136691    140.27338 
  190000    73155    300.05193     171.2676   -8111356.2    65428.776   -8045927.4    690231.91    1.1991871    70.143648    70.143648     140.2873 
  190100    73155    300.34356   -592.02732     -8110937    65492.371   -8045444.6    690791.38    1.1982159    70.162594    70.162594    140.32519 
  190200    73155    301.42565   -1068.5075   -8110922.4    65728.328     -8045194     691118.2    1.1976493    70.173657    70.173657    140.34731 
  190300    73155    299.74663   -132.22588   -8110812.7    65362.203   -8045450.5    691152.08    1.1975906    70.174804    70.174804    140.34961 
  190400    73155    299.92362    257.83289   -8111104.1    65400.799   -8045703.3    690934.04    1.1979685    70.167424    70.167424    140.33485 
  190500    73155    299.81982   -781.71126   -8111107.7    65378.164   -8045729.5     690994.9     1.197863    70.169484    70.169484    140.33897 
  190600    73155     301.5397    702.63714   -8111057.8    65753.197   -8045304.6     691019.1    1.1978211    70.170303    70.170303    140.34061 
  190700    73155    301.45994   -688.78322   -8110670.4    65735.805   -8044934.6    690953.03    1.1979356    70.168067    70.168067    140.33613 
  190800    73155    301.82244    423.00614   -8110974.5    65814.851   -8045159.7    691020.33    1.1978189    70.170345    70.170345    140.34069 
  190900    73155     299.6428    1876.5899   -8110838.4    65339.564   -8045498.9    690702.82    1.1983696    70.159596    70.159596    140.31919 
  191000    73155    300.55327   -54.153737   -8111092.9    65538.099   -8045554.8    690433.86    1.1988364    70.150488    70.150488    140.30098 
  191100    73155    299.48091   -258.60691   -8111033.1    65304.261   -8045728.9     690367.6    1.1989515    70.148244    70.148244    140.29649 
  191200    73155    298.65508   -768.46051   -8111262.7    65124.183   -8046138.5    689889.22    1.1997828    70.132037    70.132037    140.26407 
  191300    73155    298.19442    829.79894   -8111387.1    65023.732   -8046363.3    689652.17    1.2001952    70.124004    70.124004    140.24801 
  191400    73155    298.98371   -636.03595   -8111020.9    65195.842   -8045825.1    689815.75    1.1999106    70.129547    70.129547    140.25909 
  191500    73155    299.42275    1141.0708   -8110879.4    65291.578   -8045587.8    689849.27    1.1998523    70.130683    70.130683    140.26137 
  191600    73155    300.32772    580.61506   -8111032.9    65488.915     -8045544    690095.66    1.1994239    70.139032    70.139032    140.27806 
  191700    73155    299.44641    2273.6402   -8110991.9    65296.739   -8045695.2    690181.74    1.1992743    70.141948    70.141948     140.2839 
  191800    73155    299.37837    231.01832   -8111217.7    65281.903   -8045935.8    690600.87    1.1985465    70.156144    70.156144    140.31229 
  191900    73155     298.3241   -918.51444   -8111164.4    65052.009   -8046112.4    690877.28    1.1980669    70.165502    70.165502      140.331 
  192000    73155     299.3105    140.80315   -8111138.5    65267.102   -8045871.4    691156.72    1.1975826    70.174961    70.174961    140.34992 
  192100    73155    300.34784    850.02153   -8110907.5    65493.303   -8045414.2    691585.73    1.1968397    70.189477    70.189477    140.37895 
  192200    73155    300.19748   -198.59657   -8110713.2    65460.516   -8045252.7    691757.81    1.1965419    70.195299    70.195299     140.3906 
  192300    73155    299.97139    37.088151   -8110783.6    65411.214   -8045372.4    691631.94    1.1967597    70.191041    70.191041    140.38208 
  192400    73155    299.68439    226.95789   -8111190.1    65348.631   -8045841.4    691595.12    1.1968234    70.189795    70.189795    140.37959 
  192500    73155    299.06016     465.7708   -8111194.3    65212.513   -8045981.8    691225.82    1.1974628      70.1773      70.1773     140.3546 
  192600    73155    299.98255   -273.84667   -8111163.2    65413.647   -8045749.6    690743.54    1.1982989    70.160975    70.160975    140.32195 
  192700    73155     300.7475   -400.94654     -8111122    65580.452   -8045541.5    690448.34    1.1988112    70.150978    70.150978    140.30196 
  192800    73155     298.5652     445.8819   -8110723.4    65104.583   -8045618.8    690151.67    1.1993266    70.140929    70.140929    140.28186 
  192900    73155    299.54133    127.04743     -8111003    65317.438   -8045685.6    689840.52    1.1998675    70.130387    70.130387    140.26077 
  193000    73155    299.05838    142.72676   -8111101.3    65212.126   -8045889.2    689761.87    1.2000043    70.127721    70.127721    140.25544 
  193100    73155    298.30617   -474.53631   -8110894.9    65048.099   -8045846.8    690288.86    1.1990882    70.145577    70.145577    140.29115 
  193200    73155    301.35565    94.945732     -8111079    65713.065     -8045366    690486.34    1.1987453    70.152265    70.152265    140.30453 
  193300    73155     301.6377    277.15848   -8111030.3    65774.568   -8045255.7    690540.93    1.1986505    70.154114    70.154114    140.30823 
  193400    73155    301.84582   -290.34774   -8111230.8    65819.949   -8045410.9    690841.82    1.1981284    70.164302    70.164302     140.3286 
  193500    73155    299.80654   -629.08814   -8111227.5    65375.267   -8045852.3    690952.78     1.197936    70.168058    70.168058    140.33612 
  193600    73155    299.37622    210.46646   -8111136.4    65281.434   -8045854.9    690967.54    1.1979104    70.168558    70.168558    140.33712 
  193700    73155    299.43942   -95.444828   -8111031.3    65295.215   -8045736.1    691136.35    1.1976179    70.174271    70.174271    140.34854 
  193800    73155    300.45813   -308.52253   -8111029.5    65517.352   -8045512.1    691080.37    1.1977149    70.172377    70.172377    140.34475 
  193900    73155    301.35756    161.84658     -8111125     65713.48   -8045411.5    690989.13     1.197873    70.169288    70.169288    140.33858 
  194000    73155     298.4913   -171.86936   -8111088.2     65088.47   -8045999.7    690979.19    1.1978902    70.168952    70.168952     140.3379 
  194100    73155    297.88106    747.34985   -8111057.3    64955.402   -8046101.9    690404.85    1.1988868    70.149505    70.149505    140.29901 
  194200    73155    299.84631    281.02103   -8111034.9     65383.94   -8045650.9    690043.79    1.1995141    70.137274    70.137274    140.27455 
  194300    73155    300.63255    783.20372   -8110925.1    65555.386   -8045369.7    689624.98    1.2002425    70.123082    70.123082    140.24616 
  194400    73155    300.83527    43.044201   -8110902.1    65599.591   -8045302.5    689822.92    1.1998981    70.129791    70.129791    140.25958 
  194500    73155    301.13675    -939.7646   -8111199.1    65665.331   -8045533.8    690138.65    1.1993492    70.140488    70.140488    140.28098 
  194600    73155    298.74216    362.03385   -8111118.3    65143.171   -8045975.1    690696.63    1.1983803    70.159386    70.159386    140.31877 
  194700    73155     300.5461    594.60509   -8111507.5    65536.536     -8045971    690750.97     1.198286    70.161226    70.161226    140.32245 
  194800    73155    299.77922   -343.02959   -8111171.3     65369.31     -8045802    690386.65    1.1989184    70.148889    70.148889    140.29778 
  194900    73155    300.00875   -1363.7977   -8110989.3    65419.362   -8045569.9    690078.51    1.1994537    70.138451    70.138451     140.2769 
  195000    73155    300.58554   -471.46191   -8111072.5    65545.135   -8045527.4    689953.16    1.1996716    70.134204    70.134204    140.26841 
  195100    73155    299.67262    347.84913   -8111064.4    65346.066   -8045718.3     690100.3    1.1994158    70.139189    70.139189    140.27838 
  195200    73155    299.76528     36.03106     -8111211    65366.271   -8045844.7    690180.96    1.1992757    70.141922    70.141922    140.28384 
  195300    73155    298.96533   -401.35547   -8111069.5    65191.836   -8045877.7    690043.14    1.1995152    70.137252    70.137252     140.2745 
  195400    73155    300.09758    520.53593   -8110894.9    65438.732   -8045456.2     689501.9    1.2004568     70.11891     70.11891    140.23782 
  195500    73155    300.47323   -594.68936   -8110658.9    65520.645   -8045138.3    689125.68    1.2011122    70.106154    70.106154    140.21231 
  195600    73155    301.24778    781.11755   -8111053.8    65689.543   -8045364.3    688882.89    1.2015355    70.097921    70.097921    140.19584 
  195700    73155    299.50396    945.73638   -8111085.3    65309.289     -8045776    689086.75      1.20118    70.104834    70.104834    140.20967 
  195800    73155    299.42554   -631.07252   -8111082.5    65292.187   -8045790.3    689308.41    1.2007938    70.112351    70.112351     140.2247 
  195900    73155    300.71657    730.20055   -8111169.8    65573.708   -8045596.1    689299.68     1.200809    70.112055    70.112055    140.22411 
  196000    73155     301.1166    54.281928   -8110996.3    65660.937   -8045335.4    689813.71    1.1999142    70.129478    70.129478    140.25896 
  196100    73155    301.22591    -1191.411   -8110786.5    65684.773   -8045101.7    689997.98    1.1995937    70.135722    70.135722    140.27144 
  196200    73155    301.03467   -395.23345   -8110670.9    65643.071   -8045027.8    690727.49    1.1983268    70.160431    70.160431    140.32086 
  196300    73155    300.96218    51.731642   -8111159.9    65627.265   -8045532.6    691210.28    1.1974898    70.176774    70.176774    140.35355 
  196400    73155    299.28545      115.548     -8111088    65261.641   -8045826.4    691307.04    1.1973222    70.180048    70.180048     140.3601 
  196500    73155    300.24049    525.15846   -8111247.9    65469.894     -8045778    691143.14    1.1976061    70.174501    70.174501      140.349 
  196600    73155    300.46429   -607.35406   -8111100.8    65518.695   -8045582.2    690915.63    1.1980004    70.166801    70.166801     140.3336 
  196700    73155    301.28066   -323.57251   -8110990.8    65696.712   -8045294.1    690493.03    1.1987336    70.152492    70.152492    140.30498 
  196800    73155    301.72872   -668.29541   -8110907.4    65794.415     -8045113    690578.01    1.1985861    70.155369    70.155369    140.31074 
  196900    73155    300.05481   -427.07537   -8111009.2    65429.406   -8045579.8    690567.62    1.1986042    70.155018    70.155018    140.31004 
  197000    73155    299.44012   -345.95528   -8111204.2    65295.366   -8045908.9    690244.49    1.1991653    70.144074    70.144074    140.28815 
  197100    73155    299.17358    407.69823   -8111033.2    65237.245     -8045796    689926.68    1.1997177    70.133307    70.133307    140.26661 
  197200    73155    299.94767     423.8032   -8110915.1    65406.043     -8045509    689421.81    1.2005962    70.116195    70.116195    140.23239 
  197300    73155    301.21888    434.69732   -8111119.3    65683.241   -8045436.1    689161.01    1.2010506    70.107353    70.107353    140.21471 
  197400    73155    299.15283    1325.6079   -8110848.7    65232.721     -8045616    689083.01    1.2011865    70.104708    70.104708    140.20942 
  197500    73155    298.27077    821.85828   -8111047.8    65040.381   -8046007.4    689642.93    1.2002113    70.123691    70.123691    140.24738 
  197600    73155    298.72065   -958.85824   -8111131.8     65138.48   -8045993.3    689657.03    1.2001868    70.124168    70.124168    140.24834 
  197700    73155    300.81081   -417.66765   -8111244.6    65594.257   -8045650.4    689771.64    1.1999873    70.128053    70.128053    140.25611 
  197800    73155    301.08511    905.63005   -8111103.4    65654.071   -8045449.4    690078.99    1.1994529    70.138467    70.138467    140.27693 
  197900    73155    301.28311    -542.2959   -8111364.9    65697.247   -8045667.7    690450.36    1.1988077    70.151047    70.151047    140.30209 
  198000    73155    298.29024   -1503.9105   -8111188.2    65044.626   -8046143.6    690539.27    1.1986534    70.154058    70.154058    140.30812 
  198100    73155    298.33367    1428.7096   -8111004.5    65054.097   -8045950.4    690569.11    1.1986016    70.155068    70.155068    140.31014 
  198200    73155    300.13395   -66.908326   -8110995.1    65446.662   -8045548.4    691016.68    1.1978253    70.170221    70.170221    140.34044 
  198300    73155    300.12046    1712.5559   -8110839.6    65443.721   -8045395.8    691020.39    1.1978188    70.170347    70.170347    140.34069 
  198400    73155    301.65767    517.63012   -8111150.8    65778.922   -8045371.8    691293.94    1.1973448    70.179605    70.179605    140.35921 
  198500    73155    300.27327    186.17661   -8111216.9    65477.042   -8045739.9    691630.26    1.1967626    70.190984    70.190984    140.38197 
  198600    73155    298.35342   -780.26638     -8111154    65058.404   -8046095.6    691815.63    1.1964419    70.197254    70.197254    140.39451 
  198700    73155    299.81257    1133.3518   -8111265.5    65376.582   -8045888.9    691491.86    1.1970021    70.186302    70.186302     140.3726 
  198800    73155    299.14972   -229.94179   -8110841.8    65232.042   -8045609.8    691182.54    1.1975378    70.175835    70.175835    140.35167 
  198900    73155    300.43011    665.73987   -8110951.5    65511.242   -8045440.2       690664    1.1984369    70.158281    70.158281    140.31656 
  199000    73155    300.51424    231.20224   -8110929.4    65529.588   -8045399.8    690820.96    1.1981646    70.163595    70.163595    140.32719 
  199100    73155    300.19446    29.671305   -8110941.4    65459.857   -8045481.5    691076.17    1.1977221    70.172235    70.172235    140.34447 
  199200    73155    300.92804   -219.44365   -8111125.7     65619.82   -8045505.9    691314.29    1.1973096    70.180294    70.180294    140.36059 
  199300    73155    299.79178    483.23982   -8111010.7    65372.049   -8045638.6    690892.63    1.1980403    70.166022    70.166022    140.33204 
  199400    73155    299.42848   -1699.1303   -8110988.5    65292.829   -8045695.7     690487.4    1.1987434    70.152301    70.152301     140.3046 
  199500    73155    299.99919    135.37829   -8111042.8    65417.276   -8045625.5    690237.68    1.1991771    70.143843    70.143843    140.28769 
  199600    73155    300.86239    949.19319     -8111225    65605.505   -8045619.5    689912.16    1.1997429    70.132814    70.132814    140.26563 
  199700    73155    299.68551    320.89876   -8111126.4    65348.875   -8045777.5    689767.66    1.1999943    70.127918    70.127918    140.25584 
  199800    73155    299.02053    1181.6116   -8111274.2    65203.872   -8046070.3    690042.28    1.1995167    70.137223    70.137223    140.27445 
  199900    73155    298.58432   -632.83075     -8111205    65108.753   -8046096.3     690343.8    1.1989928    70.147438    70.147438    140.29488 
  200000    73155    300.28093   -313.89135   -8111037.1    65478.712   -8045558.4    690631.03    1.1984941    70.157165    70.157165    140.31433 
Loop time of 94714.9 on 56 procs for 200000 steps with 73155 atoms

Performance: 0.046 ns/day, 526.194 hours/ns, 2.112 timesteps/s
96.3% CPU use with 56 MPI tasks x no OpenMP threads

MPI task timing breakdown:
Section |  min time  |  avg time  |  max time  |%varavg| %total
---------------------------------------------------------------
Pair    | 47334      | 49933      | 52227      | 580.9 | 52.72
Neigh   | 3200.9     | 3460.8     | 3712.8     | 229.5 |  3.65
Comm    | 2264.7     | 4427.9     | 7119.4     |1929.4 |  4.67
Output  | 9.7501     | 9.7576     | 9.8933     |   0.6 |  0.01
Modify  | 36287      | 36876      | 37443      | 162.6 | 38.93
Other   |            | 7.215      |            |       |  0.01

Nlocal:    1306.34 ave 1399 max 1148 min
Histogram: 1 1 2 3 8 7 15 4 9 6
Nghost:    13291 ave 13701 max 12832 min
Histogram: 3 5 9 1 6 7 8 9 3 5
Neighs:    1.25272e+06 ave 1.3822e+06 max 1.02726e+06 min
Histogram: 1 0 3 3 9 6 15 2 10 7

Total # of neighbors = 70152307
Ave neighs/atom = 958.954
Neighbor list builds = 20000
Dangerous builds not checked
write_restart	restart.npt_equi
unfix npt_equi
undump npt_dump


Please see the log.cite file for references relevant to this simulation

Total wall time: 26:21:10
