LAMMPS (2 Aug 2019)
#lammps code to run fracture simulations on PNC with single cnt
#functionalized 10 % with -OH group
#cnt not fixed during nvt equilibration in materials studio

units		real
atom_style 	charge
boundary 	p p p
read_data       single_cnt_f.data
  orthogonal box = (0.590896 0.795523 -0.725637) to (70.5909 70.7955 139.274)
  2 by 4 by 7 MPI processor grid
  reading atoms ...
  73382 atoms
  read_data CPU = 0.251554 secs

pair_style	reax/c control_file lgvdw yes
pair_coeff	* * ffield.reax.lg C C H O H C C C O O C C
Reading potential file ffield.reax.lg with DATE: 2012-01-06

neighbor	4 bin
neigh_modify	every 10 delay 0 check no

thermo 100
thermo_style custom step atoms temp press pe ke etotal vol density lx ly lz      #output variables

fix std all qeq/reax 1 0.0 10.0 1e-6 reax/c
min_style	 cg							#conjugate gradient minimization
minimize	 1.0e-6 1.0e-8 10000 100000
WARNING: Using 'neigh_modify every 1 delay 0 check yes' setting during minimization (../min.cpp:168)
Neighbor list info ...
  update every 1 steps, delay 0 steps, check yes
  max neighbors/atom: 2000, page size: 100000
  master list distance cutoff = 14
  ghost atom cutoff = 14
  binsize = 7, bins = 10 10 20
  2 neighbor lists, perpetual/occasional/extra = 2 0 0
  (1) pair reax/c, perpetual
      attributes: half, newton off, ghost
      pair build: half/bin/newtoff/ghost
      stencil: half/ghost/bin/3d/newtoff
      bin: standard
  (2) fix qeq/reax, perpetual, copy from (1)
      attributes: half, newton off, ghost
      pair build: copy
      stencil: none
      bin: none
Per MPI rank memory allocation (min/avg/max) = 306.3 | 329.3 | 344.3 Mbytes
Step Atoms Temp Press PotEng KinEng TotEng Volume Density Lx Ly Lz 
       0    73382            0    313689.58   -7758704.3            0   -7758704.3       686000     1.210225           70           70          140 
      48    73382            0    24847.441   -8151505.4            0   -8151505.4       686000     1.210225           70           70          140 
Loop time of 106.163 on 56 procs for 48 steps with 73382 atoms

93.7% CPU use with 56 MPI tasks x no OpenMP threads

Minimization stats:
  Stopping criterion = energy tolerance
  Energy initial, next-to-last, final = 
        -7758704.25516     -8151498.85482     -8151505.37918
  Force two-norm initial, final = 64582 4638.74
  Force max component initial, final = 965.143 341.769
  Final line search alpha, max atom move = 0.000586496 0.200446
  Iterations, force evaluations = 48 130

MPI task timing breakdown:
Section |  min time  |  avg time  |  max time  |%varavg| %total
---------------------------------------------------------------
Pair    | 30.406     | 34.117     | 35.499     |  24.4 | 32.14
Neigh   | 0          | 0          | 0          |   0.0 |  0.00
Comm    | 1.1386     | 2.7379     | 6.566      |  84.3 |  2.58
Output  | 0          | 0          | 0          |   0.0 |  0.00
Modify  | 68.974     | 68.989     | 69.014     |   0.1 | 64.98
Other   |            | 0.3186     |            |       |  0.30

Nlocal:    1310.39 ave 1406 max 1159 min
Histogram: 2 6 4 3 1 2 7 15 14 2
Nghost:    13383.8 ave 13941 max 12698 min
Histogram: 9 3 2 4 4 2 6 11 11 4
Neighs:    1.2755e+06 ave 1.39506e+06 max 1.05914e+06 min
Histogram: 3 5 5 3 1 2 1 12 13 11

Total # of neighbors = 71428146
Ave neighs/atom = 973.374
Neighbor list builds = 0
Dangerous builds not checked


#set of equilibrations to reduce the energy of the system

reset_timestep 0
timestep 0.25
#fix nvt_equi all nvt temp 300.0 300.0 25.0
fix npt_equi all npt temp 300.0 300.0 25.0 iso 1.0 1.0 250.0
dump npt_dump all custom 500 dump.npt id type x y z
run 200000
Per MPI rank memory allocation (min/avg/max) = 305.9 | 329.1 | 344 Mbytes
Step Atoms Temp Press PotEng KinEng TotEng Volume Density Lx Ly Lz 
       0    73382            0    24847.434   -8151505.4            0   -8151505.4       686000     1.210225           70           70          140 
     100    73382     73.84642   -1182.8194   -8168312.5    16152.784   -8152159.8    699082.73    1.1875767    70.442192    70.442192    140.88438 
     200    73382    105.88983   -2353.2672   -8171957.4    23161.793   -8148795.6    697540.15    1.1902029    70.390341    70.390341    140.78068 
     300    73382    118.17724   -3111.7989   -8170261.5    25849.477   -8144412.1    693713.42    1.1967685    70.261384    70.261384    140.52277 
     400    73382    133.40859   -2354.2372   -8168520.5    29181.104   -8139339.4    693632.63    1.1969079    70.258656    70.258656    140.51731 
     500    73382    154.23662    2135.8233   -8167313.2    33736.919   -8133576.3    692265.41    1.1992717    70.212464    70.212464    140.42493 
     600    73382    170.48237    2779.3445   -8164487.2     37290.43   -8127196.8    694464.31    1.1954744    70.286726    70.286726    140.57345 
     700    73382    184.00428    2196.3954   -8160521.9    40248.143   -8120273.8    697689.43    1.1899483    70.395362    70.395362    140.79072 
     800    73382    203.62876    1261.5084   -8157518.5    44540.702   -8112977.8    701222.72    1.1839524    70.513996    70.513996    141.02799 
     900    73382    221.97324    2637.8546   -8153957.8    48553.276   -8105404.5    706017.52    1.1759118    70.674351    70.674351     141.3487 
    1000    73382    240.78149    1514.0333     -8150390    52667.297   -8097722.7     711180.2    1.1673755    70.846199    70.846199     141.6924 
    1100    73382    257.25918    570.02807   -8146330.2    56271.541   -8090058.7    714855.71    1.1613733    70.968038    70.968038    141.93608 
    1200    73382    273.17783    2322.8022     -8142536    59753.504   -8082782.5    718758.89    1.1550665    71.096968    71.096968    142.19394 
    1300    73382    283.95287    2603.4625   -8138294.3     62110.38   -8076183.9    722082.54    1.1497499    71.206387    71.206387    142.41277 
    1400    73382    295.77548    446.76692   -8135288.1    64696.398   -8070591.7    725772.14    1.1439049    71.327461    71.327461    142.65492 
    1500    73382    300.28839    1387.8199   -8132219.9    65683.529   -8066536.4    728366.18     1.139831    71.412339    71.412339    142.82468 
    1600    73382    304.29989   -686.11327   -8130623.7    66560.983   -8064062.7    730966.92    1.1357755    71.497234    71.497234    142.99447 
    1700    73382    301.26175    1041.0101   -8129126.6    65896.435   -8063230.1    732540.83    1.1333352    71.548513    71.548513    143.09703 
    1800    73382    301.90774   -491.41614   -8129322.5    66037.737   -8063284.8    734687.04    1.1300245     71.61832     71.61832    143.23664 
    1900    73382    298.34278    765.63395     -8128906    65257.954     -8063648     735511.7    1.1287575    71.645106    71.645106    143.29021 
    2000    73382    300.06633    740.71652   -8129038.2    65634.956   -8063403.2     736957.9    1.1265424    71.692033    71.692033    143.38407 
    2100    73382    303.35173   -188.15493   -8129537.9    66353.588   -8063184.3    737878.12    1.1251375     71.72186     71.72186    143.44372 
    2200    73382    301.27321    353.85424   -8129660.1    65898.941   -8063761.1    737945.35     1.125035    71.724039    71.724039    143.44808 
    2300    73382    300.30049    548.17606   -8130414.8    65686.175   -8064728.6    739285.48    1.1229956     71.76743     71.76743    143.53486 
    2400    73382    298.88009    311.74534   -8130991.8    65375.482   -8065616.3    740929.56    1.1205037    71.820591    71.820591    143.64118 
    2500    73382    299.90108    342.77187     -8131612     65598.81   -8066013.2    742428.48    1.1182415     71.86899     71.86899    143.73798 
    2600    73382     300.3016   -529.54878   -8131967.7    65686.417   -8066281.3    743791.55    1.1161922    71.912946    71.912946    143.82589 
    2700    73382    301.39951    959.69544     -8132669    65926.568   -8066742.4    745465.92    1.1136852    71.966867    71.966867    143.93373 
    2800    73382    300.43193    820.86905   -8133090.7    65714.925   -8067375.7    748160.78    1.1096737    72.053483    72.053483    144.10697 
    2900    73382    300.68351    525.31864     -8133862    65769.954   -8068092.1    750982.05    1.1055049    72.143939    72.143939    144.28788 
    3000    73382    299.67606     1325.326     -8134247    65549.589   -8068697.4    753697.73    1.1015216    72.230797    72.230797    144.46159 
    3100    73382    297.69963    275.88963   -8133659.9    65117.275   -8068542.6    756546.48    1.0973739    72.321686    72.321686    144.64337 
    3200    73382     300.3558     1442.293   -8133129.5    65698.273   -8067431.2    759488.96    1.0931223    72.415326    72.415326    144.83065 
    3300    73382    300.52328   -236.76255   -8132338.2    65734.907   -8066603.3    763071.99    1.0879895    72.529025    72.529025    145.05805 
    3400    73382    299.42898    1669.4821   -8131841.5    65495.544   -8066345.9    767192.41    1.0821462    72.659338    72.659338    145.31868 
    3500    73382    298.66326    1117.7465   -8131591.6    65328.056   -8066263.5    771653.87    1.0758896    72.799911    72.799911    145.59982 
    3600    73382    297.89186    953.84299   -8130834.6    65159.323   -8065675.3    776105.03     1.069719    72.939621    72.939621    145.87924 
    3700    73382     299.9267    1597.1321   -8130189.3    65604.414   -8064584.8     780233.3    1.0640591    73.068719    73.068719    146.13744 
    3800    73382    301.19755    1019.0054   -8129712.5    65882.394   -8063830.1    784326.48    1.0585061    73.196272    73.196272    146.39254 
    3900    73382    301.00909    1150.5775   -8129495.3     65841.17   -8063654.1     788695.4    1.0526425    73.331928    73.331928    146.66386 
    4000    73382    299.33666    531.65055   -8128711.1    65475.352   -8063235.7    792676.56    1.0473557    73.455109    73.455109    146.91022 
    4100    73382     299.3889     1072.007   -8127822.8    65486.777     -8062336    796513.18    1.0423109    73.573428    73.573428    147.14686 
    4200    73382    303.11796    950.35706   -8127539.4    66302.453     -8061237    800541.87    1.0370655    73.697262    73.697262    147.39452 
    4300    73382    300.79729    1033.4018     -8126925    65794.842   -8061130.2    804628.01    1.0317989    73.822438    73.822438    147.64488 
    4400    73382    298.91442    126.84666   -8126931.7    65382.993   -8061548.7    808321.63    1.0270841    73.935226    73.935226    147.87045 
    4500    73382    299.78883     520.3178   -8127379.9    65574.256   -8061805.7    811311.37    1.0232993    74.026268    74.026268    148.05254 
    4600    73382    299.95426    587.31022   -8127551.8    65610.443   -8061941.4    814232.89    1.0196276    74.115017    74.115017    148.23003 
    4700    73382    299.66861    1088.3253     -8127517    65547.961     -8061969    817548.12    1.0154929     74.21547     74.21547    148.43094 
    4800    73382    301.10069   -390.00276   -8127934.1    65861.206   -8062072.8    820036.34    1.0124116    74.290686    74.290686    148.58137 
    4900    73382    299.08461    580.16557   -8127926.3    65420.219   -8062506.1    821070.87     1.011136    74.321914    74.321914    148.64383 
    5000    73382    298.80218    503.58688   -8127886.3    65358.441   -8062527.9    823137.76    1.0085971    74.384225    74.384225    148.76845 
    5100    73382    300.46902   -39.487517   -8128007.2    65723.039   -8062284.2    824895.43     1.006448    74.437132    74.437132    148.87426 
    5200    73382    300.69908    940.33269   -8128159.7    65773.361   -8062386.3    825353.38    1.0058895    74.450905    74.450905    148.90181 
    5300    73382    298.26049    103.86682   -8128007.5    65239.955   -8062767.6    826099.97    1.0049805    74.473347    74.473347    148.94669 
    5400    73382    300.87969    79.671863   -8128531.1    65812.865   -8062718.2    825493.22    1.0057191    74.455109    74.455109    148.91022 
    5500    73382     298.4188   -366.36666     -8127853    65274.583   -8062578.4    825924.53    1.0051939    74.468074    74.468074    148.93615 
    5600    73382    300.98039   -5.8083487   -8128371.1    65834.892   -8062536.2    825691.36    1.0054778    74.461066    74.461066    148.92213 
    5700    73382    299.60388    215.19742   -8128462.4    65533.802   -8062928.6    823887.55    1.0076792    74.406803    74.406803    148.81361 
    5800    73382     299.6284   -302.43051   -8128724.1    65539.164   -8063184.9    822816.39     1.008991    74.374544    74.374544    148.74909 
    5900    73382    301.90051    267.44358   -8129496.4    66036.153   -8063460.3    821554.51    1.0105408    74.336503    74.336503    148.67301 
    6000    73382    300.11457    9.3173177   -8129691.6    65645.506   -8064046.1    820057.98    1.0123849    74.291339    74.291339    148.58268 
    6100    73382    297.98379   -427.04013   -8129718.3    65179.431   -8064538.9    818381.01    1.0144594    74.240664    74.240664    148.48133 
    6200    73382    299.89919   -293.88776   -8130153.3    65598.396   -8064554.9     816455.7    1.0168517      74.1824      74.1824     148.3648 
    6300    73382    301.94301   -704.40058   -8130147.2     66045.45   -8064101.8    814098.95    1.0197954    74.110953    74.110953    148.22191 
    6400    73382    301.27366   -770.38183   -8129608.7    65899.041   -8063709.6    811845.07    1.0226266    74.042496    74.042496    148.08499 
    6500    73382    301.71319   -210.52448   -8129762.5    65995.181   -8063767.3    809631.32    1.0254227    73.975135    73.975135    147.95027 
    6600    73382    298.93374   -432.56738   -8129982.3    65387.218   -8064595.1    807029.17     1.028729    73.895798    73.895798     147.7916 
    6700    73382    298.14686   -303.49159   -8130109.6      65215.1   -8064894.5    805132.84     1.031152    73.837874    73.837874    147.67575 
    6800    73382    301.26735   -1567.8987   -8130059.9     65897.66   -8064162.3    803283.54    1.0335259    73.781298    73.781298     147.5626 
    6900    73382    302.19791    135.64101   -8129701.6    66101.206   -8063600.4    800791.68     1.036742    73.704927    73.704927    147.40985 
    7000    73382    301.43276   -39.477076   -8129556.4    65933.842   -8063622.5     799437.1    1.0384986    73.663345    73.663345    147.32669 
    7100    73382    301.67541   -406.40961   -8129950.4    65986.917   -8063963.5    798364.58    1.0398937    73.630388    73.630388    147.26078 
    7200    73382    299.42085    120.14225   -8130054.3    65493.766   -8064560.6     797277.8    1.0413112    73.596963    73.596963    147.19393 
    7300    73382    298.24322    -106.9189   -8130363.9    65236.178   -8065127.8    796673.32    1.0421013    73.578358    73.578358    147.15672 
    7400    73382    298.24678   -398.30718   -8130619.8    65236.957   -8065382.8    795942.16    1.0430586    73.555842    73.555842    147.11168 
    7500    73382    299.09173   -127.43944     -8130528    65421.777   -8065106.2    794780.25    1.0445835    73.520032    73.520032    147.04006 
    7600    73382    302.40333    307.83884     -8130827    66146.139   -8064680.9    793336.58    1.0464844    73.475491    73.475491    146.95098 
    7700    73382    301.93354    56.744918   -8130995.1    66043.379   -8064951.7    792497.73    1.0475921    73.449584    73.449584    146.89917 
    7800    73382    298.07589   -950.25585   -8130654.7    65199.578   -8065455.1    792527.15    1.0475532    73.450493    73.450493    146.90099 
    7900    73382    299.66023    136.02258   -8130915.7    65546.128   -8065369.5    791850.91    1.0484478    73.429596    73.429596    146.85919 
    8000    73382    300.05889   -245.58553     -8130572    65633.328   -8064938.6    791863.12    1.0484316    73.429974    73.429974    146.85995 
    8100    73382    301.56241    638.75653   -8130855.7      65962.2   -8064893.5    792201.34     1.047984    73.440427    73.440427    146.88085 
    8200    73382    299.12789   -751.36132   -8131016.5    65429.687   -8065586.8     792897.6    1.0470638    73.461936    73.461936    146.92387 
    8300    73382    297.55388    419.36371   -8131196.7    65085.395   -8066111.3    793985.38    1.0456293    73.495515    73.495515    146.99103 
    8400    73382    300.27554    202.43706   -8131472.5    65680.717   -8065791.7    795199.46    1.0440328    73.532956    73.532956    147.06591 
    8500    73382    298.83259   -1103.4154   -8130693.2    65365.094   -8065328.1    796104.63    1.0428458    73.560846    73.560846    147.12169 
    8600    73382    300.71989     682.5989   -8130629.6    65777.912   -8064851.7    797179.37    1.0414398    73.593934    73.593934    147.18787 
    8700    73382     301.2809    -570.8024   -8130659.9    65900.624   -8064759.3    798504.44    1.0397116    73.634687    73.634687    147.26937 
    8800    73382    300.12814   -156.08904   -8130813.6    65648.476   -8065165.1    798704.53    1.0394511    73.640837    73.640837    147.28167 
    8900    73382    299.09564     -202.405   -8131100.5    65422.631   -8065677.8    799501.16    1.0384154    73.665312    73.665312    147.33062 
    9000    73382    299.71714    445.32879   -8131404.2    65558.575   -8065845.6    799932.92    1.0378549     73.67857     73.67857    147.35714 
    9100    73382    298.20554    1004.4167   -8131003.3    65227.935   -8065775.3    800384.13    1.0372699    73.692421    73.692421    147.38484 
    9200    73382    299.24776   -192.22695   -8130849.3    65455.905   -8065393.4    801423.93    1.0359241    73.724319    73.724319    147.44864 
    9300    73382    300.23496    407.52752   -8130847.8     65671.84   -8065175.9    801879.64    1.0353353     73.73829     73.73829    147.47658 
    9400    73382    300.87452    189.09217   -8131014.2    65811.735   -8065202.4    802125.23    1.0350184    73.745817    73.745817    147.49163 
    9500    73382    299.37313   -1020.8896   -8131128.3    65483.329   -8065644.9    803097.02    1.0337659    73.775587    73.775587    147.55117 
    9600    73382     298.2542    855.08386   -8131295.7    65238.579   -8066057.1     803203.6    1.0336288     73.77885     73.77885     147.5577 
    9700    73382     300.1688   -1473.0596   -8131468.8     65657.37   -8065811.5    803646.66    1.0330589    73.792414    73.792414    147.58483 
    9800    73382    301.69074    149.69562   -8131270.9    65990.271   -8065280.6    803300.15    1.0335045    73.781807    73.781807    147.56361 
    9900    73382    301.25566   -856.87652   -8130878.2    65895.104   -8064983.1    803461.38    1.0332971    73.786742    73.786742    147.57348 
   10000    73382    300.45129   -819.69138   -8130752.7     65719.16   -8065033.5    803138.68    1.0337123    73.776862    73.776862    147.55372 
   10100    73382    300.59667    234.04837   -8130953.2    65750.958   -8065202.3    802798.16    1.0341508    73.766434    73.766434    147.53287 
   10200    73382    299.43953    1027.7875     -8131241    65497.852   -8065743.1    802488.38      1.03455    73.756945    73.756945    147.51389 
   10300    73382    298.18689   -167.17066   -8131543.6    65223.856   -8066319.7    801771.08    1.0354755    73.734963    73.734963    147.46993 
   10400    73382    298.36152     635.3127   -8131588.7    65262.054   -8066326.7    800393.56    1.0372576     73.69271     73.69271    147.38542 
   10500    73382    299.88237   -81.046067   -8131323.9    65594.717   -8065729.2    799834.15    1.0379831    73.675538    73.675538    147.35108 
   10600    73382    301.32687    480.86805   -8131227.3     65910.68   -8065316.6    799982.82    1.0377902    73.680103    73.680103    147.36021 
   10700    73382     302.8548     -277.051   -8131727.1     66244.89   -8065482.2    799362.53    1.0385955    73.661054    73.661054    147.32211 
   10800    73382    298.83821   -671.95007   -8131599.3    65366.323     -8066233    798389.81    1.0398609    73.631164    73.631164    147.26233 
   10900    73382    300.01278   -773.34366   -8132268.4    65623.242   -8066645.2    796761.62    1.0419859    73.581076    73.581076    147.16215 
   11000    73382    299.46771   -1211.4533   -8131899.6    65504.016   -8066395.6    796139.18    1.0428005    73.561911    73.561911    147.12382 
   11100    73382    300.86259    183.79845   -8131729.9    65809.125   -8065920.8     794651.6    1.0447526    73.516065    73.516065    147.03213 
   11200    73382    302.38027    250.35557   -8132041.3    66141.095   -8065900.2    794215.87    1.0453258    73.502626    73.502626    147.00525 
   11300    73382    300.18524    1109.9999   -8132256.7    65660.964   -8066595.7    792536.44    1.0475409     73.45078     73.45078    146.90156 
   11400    73382    298.39998    339.77553   -8132389.3    65270.468   -8067118.8    791101.87    1.0494405    73.406436    73.406436    146.81287 
   11500    73382     300.0692    -1081.534   -8132550.7    65635.583   -8066915.2    790515.49    1.0502189    73.388295    73.388295    146.77659 
   11600    73382    301.74166   -695.88868   -8132645.2    66001.408   -8066643.8    789736.35    1.0512551    73.364176    73.364176    146.72835 
   11700    73382    301.64263   -137.35518     -8132871    65979.747   -8066891.3    788982.79    1.0522591    73.340834    73.340834    146.68167 
   11800    73382    299.32768   -136.16041     -8132858    65473.387   -8067384.6    788036.32    1.0535229    73.311496    73.311496    146.62299 
   11900    73382    298.71737    664.45567   -8132692.7    65339.891   -8067352.8    786639.54    1.0553936    73.268156    73.268156    146.53631 
   12000    73382    301.57121   -177.24558   -8132710.7    65964.125   -8066746.6     786157.3     1.056041    73.253181    73.253181    146.50636 
   12100    73382    301.08618    357.67192   -8132116.8    65858.033   -8066258.7    785529.77    1.0568846    73.233684    73.233684    146.46737 
   12200    73382    301.64417   -686.89804   -8132188.1    65980.084     -8066208    785283.96    1.0572155    73.226045    73.226045    146.45209 
   12300    73382    300.65522   -31.374351     -8132630    65763.766   -8066866.2    784903.78    1.0577275    73.214226    73.214226    146.42845 
   12400    73382    298.07655   -101.53136   -8132900.8    65199.721     -8067701    784744.63     1.057942    73.209277    73.209277    146.41855 
   12500    73382     297.4401   -699.73451   -8132796.1    65060.507   -8067735.6     784330.2     1.058501    73.196388    73.196388    146.39278 
   12600    73382    300.50511     195.1532   -8132698.7    65730.931   -8066967.7    783239.78    1.0599747    73.162451    73.162451     146.3249 
   12700    73382    302.68229   -1348.2124   -8132665.9    66207.158   -8066458.8    783379.04    1.0597862    73.166787    73.166787    146.33357 
   12800    73382    301.47865   -94.331664   -8132780.4     65943.88   -8066836.6    781830.83    1.0618849    73.118555    73.118555    146.23711 
   12900    73382    299.03297   -1257.7345   -8132993.4    65408.924   -8067584.5    780796.79    1.0632912    73.086305    73.086305    146.17261 
   13000    73382    299.72641    4.5432264   -8133295.1    65560.603   -8067734.5    781512.75    1.0623171    73.108638    73.108638    146.21728 
   13100    73382    299.53612   -407.29119   -8133175.7     65518.98   -8067656.7    781215.15    1.0627218    73.099356    73.099356    146.19871 
   13200    73382    299.08985    441.98788   -8132857.2    65421.365   -8067435.8    780492.72    1.0637054    73.076817    73.076817    146.15363 
   13300    73382    302.22341    105.60444   -8133308.3    66106.784   -8067201.5    779948.95     1.064447    73.059842    73.059842    146.11968 
   13400    73382    301.04844    1107.0192   -8133380.2    65849.776   -8067530.4    778970.77    1.0657837    73.029286    73.029286    146.05857 
   13500    73382     297.9156    599.38442     -8133228    65164.516   -8068063.5    778638.56    1.0662384    73.018903    73.018903    146.03781 
   13600    73382    298.86281    1015.0728   -8133293.5    65371.703   -8067921.8    778556.52    1.0663508    73.016338    73.016338    146.03268 
   13700    73382    300.93118   -421.34047     -8133275    65824.127   -8067450.9    778307.65    1.0666917    73.008557    73.008557    146.01711 
   13800    73382    302.29035   -224.27997     -8133229    66121.426   -8067107.5    778032.14    1.0670695    72.999942    72.999942    145.99988 
   13900    73382    300.35773    722.01904   -8132761.4    65698.695   -8067062.7    777024.52    1.0684532    72.968414    72.968414    145.93683 
   14000    73382    298.73214    1002.7447   -8132495.3    65343.121   -8067152.2     777456.8    1.0678591    72.981943    72.981943    145.96389 
   14100    73382    300.40987    310.03973   -8133057.3      65710.1   -8067347.2    777940.27    1.0671955    72.997068    72.997068    145.99414 
   14200    73382    300.60986    1046.0999     -8133438    65753.844   -8067684.1    776937.44     1.068573    72.965688    72.965688    145.93138 
   14300    73382    298.80009    63.575889   -8133283.4    65357.984   -8067925.4    777581.88    1.0676873    72.985857    72.985857    145.97171 
   14400    73382    299.56891    380.04008   -8133429.1    65526.152   -8067902.9     777920.5    1.0672226     72.99645     72.99645     145.9929 
   14500    73382    299.40332    1140.4933   -8133187.9    65489.932     -8067698    777935.32    1.0672023    72.996914    72.996914    145.99383 
   14600    73382    302.71392    371.05473   -8133518.6    66214.077   -8067304.6    777990.01    1.0671272    72.998624    72.998624    145.99725 
   14700    73382    300.35241   -518.03538   -8133110.2     65697.53   -8067412.7    777894.31    1.0672585    72.995631    72.995631    145.99126 
   14800    73382    299.23142   -150.50012   -8133111.2    65452.331   -8067658.9    777124.78    1.0683154    72.971553    72.971553    145.94311 
   14900    73382    301.21617   -260.10094   -8133291.9    65886.466   -8067405.4     776993.6    1.0684957    72.967447    72.967447    145.93489 
   15000    73382    301.54877    206.20421   -8133398.6    65959.217   -8067439.3    776972.52    1.0685247    72.966787    72.966787    145.93357 
   15100    73382    300.37762   -1534.4509   -8133510.2    65703.046   -8067807.1    776858.65    1.0686813    72.963222    72.963222    145.92644 
   15200    73382    298.36158   -705.23569   -8133197.3    65262.066   -8067935.3    776412.33    1.0692957    72.949246    72.949246    145.89849 
   15300    73382    300.76501    529.46385   -8133423.1    65787.782   -8067635.3    775232.62    1.0709229     72.91228     72.91228    145.82456 
   15400    73382    301.40035    174.68999   -8133468.1    65926.753   -8067541.3    774068.29    1.0725337    72.875759    72.875759    145.75152 
   15500    73382    299.77788    451.30786   -8133499.4    65571.862   -8067927.5    774222.99    1.0723194    72.880614    72.880614    145.76123 
   15600    73382    299.45254   -712.08136   -8133467.2    65500.699   -8067966.5    774717.29    1.0716352    72.896121    72.896121    145.79224 
   15700    73382    301.05062   -738.55296   -8133466.7    65850.255   -8067616.4     774198.6    1.0723532    72.879849    72.879849     145.7597 
   15800    73382    302.92392   -827.25948   -8133826.7    66260.009   -8067566.6    773700.65    1.0730434     72.86422     72.86422    145.72844 
   15900    73382    299.84756   -647.41349   -8133763.9    65587.103   -8068176.8    774013.35    1.0726098    72.874035    72.874035    145.74807 
   16000    73382    299.93696    629.03861     -8134504    65606.657   -8068897.3    773489.99    1.0733356    72.857607    72.857607    145.71521 
   16100    73382    297.08106   -1113.0324   -8134208.1    64981.972   -8069226.1    772426.62    1.0748132    72.824204    72.824204    145.64841 
   16200    73382    297.94722   -768.16889   -8133625.8    65171.432   -8068454.3    772353.45     1.074915    72.821904    72.821904    145.64381 
   16300    73382     303.4424   -1631.3648   -8133782.4    66373.421     -8067409    772623.25    1.0745397    72.830383    72.830383    145.66077 
   16400    73382    301.62668    495.47551   -8133445.9    65976.257   -8067469.6    772238.43    1.0750751    72.818289    72.818289    145.63658 
   16500    73382    299.92286    857.86635   -8133768.1    65603.573   -8068164.5    772299.97    1.0749895    72.820223    72.820223    145.64045 
   16600    73382    298.53857   -39.318516   -8134190.7     65300.78     -8068890    772646.34    1.0745076    72.831108    72.831108    145.66222 
   16700    73382    299.28717    16.167405     -8134437    65464.526   -8068972.5    771637.23    1.0759128    72.799388    72.799388    145.59878 
   16800    73382    301.53975    379.33894   -8134423.8    65957.245   -8068466.6     771063.4    1.0767135    72.781337    72.781337    145.56267 
   16900    73382     302.4377    308.10805   -8134036.4    66153.657   -8067882.7     770751.3    1.0771494    72.771516    72.771516    145.54303 
   17000    73382    301.54331   -46.233335   -8133899.7    65958.023   -8067941.6    770265.09    1.0778294    72.756211    72.756211    145.51242 
   17100    73382    299.07182   -523.77719     -8133864    65417.422   -8068446.5    770004.48    1.0781942    72.748005    72.748005    145.49601 
   17200    73382    298.44057   -500.08818     -8134039    65279.345   -8068759.7    769829.54    1.0784392    72.742495    72.742495    145.48499 
   17300    73382    298.73157    -325.0871   -8133983.3    65342.997   -8068640.3     770101.6    1.0780582    72.751063    72.751063    145.50213 
   17400    73382    301.25512    583.12444   -8134243.1    65894.985   -8068348.1    770891.49    1.0769536    72.775928    72.775928    145.55186 
   17500    73382    299.47721    486.07771   -8133742.6    65506.095   -8068236.5    770330.81    1.0777374     72.75828     72.75828    145.51656 
   17600    73382    299.35865   -289.72288   -8133541.9    65480.162   -8068061.7    769722.18    1.0785896    72.739113    72.739113    145.47823 
   17700    73382    300.90864    -554.6345   -8133856.9    65819.199   -8068037.7    769630.57     1.078718    72.736227    72.736227    145.47245 
   17800    73382    301.20036    55.793067   -8134223.5    65883.007   -8068340.5    769609.68    1.0787473    72.735569    72.735569    145.47114 
   17900    73382    299.30755   -692.97074   -8134472.8    65468.984   -8069003.8    769553.87    1.0788255    72.733811    72.733811    145.46762 
   18000    73382    298.19213   -1675.0699   -8134489.5    65225.003   -8069264.5    768878.19    1.0797736    72.712517    72.712517    145.42503 
   18100    73382    299.93291   -143.55247   -8134561.8    65605.771     -8068956    768380.89    1.0804724    72.696838    72.696838    145.39368 
   18200    73382    301.34951    877.85046     -8134549    65915.632   -8068633.4    768329.26     1.080545     72.69521     72.69521    145.39042 
   18300    73382    300.46168    935.24224   -8134336.5    65721.433   -8068615.1    767751.04    1.0813588    72.676969    72.676969    145.35394 
   18400    73382    299.72712   -782.17543   -8134314.4    65560.757   -8068753.6    767862.02    1.0812025    72.680471    72.680471    145.36094 
   18500    73382    299.96181   -329.21649   -8134455.6    65612.092   -8068843.5    767176.92     1.082168    72.658849    72.658849     145.3177 
   18600    73382    299.44377    1358.8551   -8134382.1     65498.78   -8068883.3    766441.28    1.0832067    72.635617    72.635617    145.27123 
   18700    73382    300.85551    130.09285   -8134540.7    65807.577   -8068733.1    766467.56    1.0831696    72.636447    72.636447    145.27289 
   18800    73382    299.63902    258.04322   -8134150.4    65541.488   -8068608.9    766690.26    1.0828549    72.643482    72.643482    145.28696 
   18900    73382    300.43757    282.61888   -8134244.7    65716.158   -8068528.5    765945.18    1.0839083    72.619942    72.619942    145.23988 
   19000    73382    299.64873   -75.834369     -8134110    65543.611   -8068566.4    765936.57    1.0839205     72.61967     72.61967    145.23934 
   19100    73382    299.96559   -1230.5388   -8134351.9    65612.919     -8068739    765781.57    1.0841399    72.614771    72.614771    145.22954 
   19200    73382    298.25045   -105.90375   -8134280.6     65237.76   -8069042.9    765502.95    1.0845345    72.605963    72.605963    145.21193 
   19300    73382     298.4882    383.71052   -8134375.7    65289.763   -8069085.9    764612.54    1.0857974    72.577801    72.577801     145.1556 
   19400    73382    300.32556   -940.81553   -8134384.1    65691.659   -8068692.4       764545    1.0858934    72.575664    72.575664    145.15133 
   19500    73382    300.31958    -281.2024   -8133931.8    65690.349   -8068241.5    763961.68    1.0867225    72.557202    72.557202     145.1144 
   19600    73382    301.62679    40.341002   -8134344.6    65976.283   -8068368.4    763136.48    1.0878976    72.531068    72.531068    145.06214 
   19700    73382      298.948   -652.28902   -8134376.7    65390.337   -8068986.4    762934.51    1.0881856    72.524669    72.524669    145.04934 
   19800    73382    298.96976    1215.1427   -8134576.6    65395.098   -8069181.5    763127.09     1.087911    72.530771    72.530771    145.06154 
   19900    73382    300.37122   -326.95303   -8134726.4    65701.645   -8069024.7    762759.13    1.0884358    72.519111    72.519111    145.03822 
   20000    73382    300.73534    -672.8604   -8134849.5    65781.291   -8069068.2    762430.42    1.0889051    72.508692    72.508692    145.01738 
   20100    73382    300.48223   -263.26558   -8135073.9    65725.927     -8069348    761932.73    1.0896163    72.492912    72.492912    144.98582 
   20200    73382    299.72627   -1039.6637   -8135038.3    65560.573   -8069477.8    762119.81    1.0893488    72.498845    72.498845    144.99769 
   20300    73382    300.21926    371.64996   -8135030.6    65668.406   -8069362.1     761318.2    1.0904958    72.473417    72.473417    144.94683 
   20400    73382    300.84205    430.73373   -8135215.8    65804.633   -8069411.2    760806.88    1.0912288    72.457188    72.457188    144.91438 
   20500    73382    298.83432    819.33793   -8134882.8    65365.471   -8069517.3    760698.79    1.0913838    72.453757    72.453757    144.90751 
   20600    73382    300.00253    475.74988   -8134951.8    65620.999   -8069330.8    760592.47    1.0915364    72.450381    72.450381    144.90076 
   20700    73382    301.63799   -110.12488   -8135023.8    65978.732   -8069045.1    760200.53    1.0920991    72.437934    72.437934    144.87587 
   20800    73382    300.50188   -8.7069351   -8134913.6    65730.224   -8069183.4    760141.48     1.092184    72.436059    72.436059    144.87212 
   20900    73382    300.14657   -1570.6718   -8135221.6    65652.506   -8069569.1    760536.24    1.0916171    72.448596    72.448596    144.89719 
   21000    73382    301.21408    41.331118   -8135651.7    65886.008   -8069765.7     760169.5    1.0921437    72.436949    72.436949     144.8739 
   21100    73382     299.1418   -90.329986   -8135379.6    65432.729   -8069946.9    760212.99    1.0920812     72.43833     72.43833    144.87666 
   21200    73382    298.48139    220.93204   -8135160.7    65288.274   -8069872.4     760194.8    1.0921074    72.437752    72.437752     144.8755 
   21300    73382    300.62032   -203.26797     -8135139    65756.133   -8069382.9    760348.84    1.0918861    72.442645    72.442645    144.88529 
   21400    73382    300.99715    816.69602   -8134817.7    65838.559   -8068979.1     760296.3    1.0919616    72.440976    72.440976    144.88195 
   21500    73382    301.27179    -1091.819   -8134929.4    65898.632   -8069030.8     760236.2    1.0920479    72.439067    72.439067    144.87813 
   21600    73382    299.65999   -963.04818   -8135027.5    65546.074   -8069481.4    759471.66    1.0931472    72.414776    72.414776    144.82955 
   21700    73382    297.25235    435.83226   -8134889.6     65019.44   -8069870.1    758842.97    1.0940529    72.394789    72.394789    144.78958 
   21800    73382    299.74157   -625.01431     -8135204    65563.919   -8069640.1    758694.16    1.0942675    72.390056    72.390056    144.78011 
   21900    73382    299.92508   -678.24487   -8135074.2     65604.06   -8069470.2     758252.3    1.0949051    72.376001    72.376001      144.752 
   22000    73382    301.51645    1084.2221   -8135409.7    65952.146   -8069457.5    757339.47    1.0962248    72.346945    72.346945    144.69389 
   22100    73382    299.48566    746.12572     -8135175    65507.942   -8069667.1    757356.33    1.0962004    72.347482    72.347482    144.69496 
   22200    73382    299.68594   -171.34614   -8135371.4    65551.752   -8069819.6    757240.24    1.0963685    72.343785    72.343785    144.68757 
   22300    73382    299.81018    36.668273   -8135271.5    65578.926   -8069692.6    755965.23    1.0982176    72.303159    72.303159    144.60632 
   22400    73382    301.17434    857.44153     -8135180    65877.316   -8069302.7    755447.37    1.0989704    72.286646    72.286646    144.57329 
   22500    73382    301.51281    267.99914   -8134969.5    65951.351   -8069018.1    755895.08    1.0983195    72.300923    72.300923    144.60185 
   22600    73382    301.30499     821.1836   -8135275.1    65905.894   -8069369.2    756080.68    1.0980499     72.30684     72.30684    144.61368 
   22700    73382    296.60353    126.61667   -8134961.3     64877.52   -8070083.8    756057.89     1.098083    72.306113    72.306113    144.61223 
   22800    73382    298.77636    369.12967   -8135520.3    65352.793   -8070167.5    755954.21    1.0982336    72.302808    72.302808    144.60562 
   22900    73382    298.41062    470.89217   -8135038.4    65272.793   -8069765.6    755060.19     1.099534    72.274294    72.274294    144.54859 
   23000    73382    301.02461    1303.9954   -8135116.5    65844.565   -8069271.9    754790.84    1.0999263    72.265699    72.265699     144.5314 
   23100    73382    301.06534    507.63465   -8135121.1    65853.473   -8069267.6    754953.83    1.0996889    72.270901    72.270901     144.5418 
   23200    73382    299.04924    516.92839   -8135144.1    65412.482   -8069731.6    754879.81    1.0997967    72.268538    72.268538    144.53708 
   23300    73382    299.36301    121.85474   -8135544.8    65481.115   -8070063.7    754341.13    1.1005821    72.251344    72.251344    144.50269 
   23400    73382    299.10715    348.77059   -8135583.3     65425.15   -8070158.2    754026.67    1.1010411    72.241303    72.241303    144.48261 
   23500    73382    300.07223    247.00748   -8135377.1    65636.246   -8069740.8    754076.21    1.1009687    72.242885    72.242885    144.48577 
   23600    73382    301.74242    190.29536   -8135243.1    66001.575   -8069241.6    753526.49    1.1017719    72.225326    72.225326    144.45065 
   23700    73382    301.45431    875.67023   -8135310.9    65938.554   -8069372.3    753296.88    1.1021078    72.217989    72.217989    144.43598 
   23800    73382    299.38035    688.70517   -8135547.8    65484.908   -8070062.8    753086.95     1.102415     72.21128     72.21128    144.42256 
   23900    73382     300.4006    984.15342   -8136180.9    65708.073   -8070472.8    753157.73    1.1023114    72.213542    72.213542    144.42708 
   24000    73382    297.58675    -1470.746   -8135649.4    65092.585   -8070556.8    753855.42    1.1012912    72.235834    72.235834    144.47167 
   24100    73382    299.59967    409.11883   -8135649.2     65532.88   -8070116.4    753059.57    1.1024551    72.210405    72.210405    144.42081 
   24200    73382    301.30937    230.86454   -8135483.3    65906.852   -8069576.4    753542.41    1.1017486    72.225835    72.225835    144.45167 
   24300    73382    300.26494    458.40437   -8134938.2    65678.399   -8069259.8    753802.59    1.1013684    72.234146    72.234146    144.46829 
   24400    73382    300.70725    235.90965   -8135109.9    65775.146   -8069334.7    753905.98    1.1012173    72.237448    72.237448     144.4749 
   24500    73382    299.96428    758.10489     -8135423    65612.633   -8069810.4    753947.45    1.1011568    72.238773    72.238773    144.47755 
   24600    73382    298.90652   -251.44865   -8135523.5    65381.265   -8070142.2    753536.81    1.1017568    72.225656    72.225656    144.45131 
   24700    73382    300.71675    -893.3727   -8135908.3    65777.225     -8070131    753525.82    1.1017729    72.225305    72.225305    144.45061 
   24800    73382    300.12018   -35.655016   -8135742.7    65646.734     -8070096    753041.64    1.1024813    72.209832    72.209832    144.41966 
   24900    73382    299.25151    652.60579   -8135548.2    65456.725   -8070091.5     752674.5    1.1030191    72.198095    72.198095    144.39619 
   25000    73382    300.46865    433.39964   -8135737.2    65722.956   -8070014.3    752047.03    1.1039394    72.178026    72.178026    144.35605 
   25100    73382    301.03168   -812.62153   -8135933.2     65846.11   -8070087.1    752175.04    1.1037515    72.182121    72.182121    144.36424 
   25200    73382    298.85789    -716.4381   -8135675.1    65370.628   -8070304.4    751976.15    1.1040434    72.175759    72.175759    144.35152 
   25300    73382     299.3454    377.95691   -8135826.2    65477.263   -8070348.9    751922.23    1.1041226    72.174034    72.174034    144.34807 
   25400    73382    299.16689    403.30419   -8135805.2    65438.217   -8070366.9    751742.28    1.1043869    72.168276    72.168276    144.33655 
   25500    73382    300.24355     853.1485   -8135951.8    65673.719   -8070278.1    750966.04    1.1055285    72.143427    72.143427    144.28685 
   25600    73382    300.21519   -338.09253   -8135972.7    65667.516   -8070305.2     750998.8    1.1054802    72.144476    72.144476    144.28895 
   25700    73382    300.32134   -287.85813   -8136083.1    65690.735   -8070392.3    750541.34     1.106154    72.129824    72.129824    144.25965 
   25800    73382    299.97268     1383.663   -8135986.8    65614.471   -8070372.4    750148.59    1.1067332     72.11724     72.11724    144.23448 
   25900    73382    298.42552    2078.8766   -8135559.7    65276.053   -8070283.7    750475.36    1.1062513    72.127711    72.127711    144.25542 
   26000    73382    302.03653   -564.78277   -8136087.3    66065.906   -8070021.4    750214.45     1.106636    72.119351    72.119351     144.2387 
   26100    73382    301.25709    695.69005   -8136022.1    65895.417   -8070126.7    749534.55    1.1076398    72.097558    72.097558    144.19512 
   26200    73382    300.03465   -595.32319     -8136103    65628.027   -8070474.9    749557.49    1.1076059    72.098293    72.098293    144.19659 
   26300    73382    299.59516     1020.402   -8136281.8    65531.893   -8070749.9    748541.83    1.1091088    72.065714    72.065714    144.13143 
   26400    73382    299.25525    353.25156     -8136174    65457.543   -8070716.5    748424.04    1.1092834    72.061933    72.061933    144.12387 
   26500    73382    300.10521     129.6298   -8135987.5    65643.459   -8070344.1    748405.28    1.1093112    72.061332    72.061332    144.12266 
   26600    73382     300.4876   -1127.5563   -8135814.9    65727.102   -8070087.8    748317.59    1.1094412    72.058517    72.058517    144.11703 
   26700    73382    301.14132   -981.61471   -8136245.4    65870.093   -8070375.3     748758.2    1.1087883    72.072657    72.072657    144.14531 
   26800    73382    299.35978    266.68322   -8136389.5    65480.408   -8070909.1    749281.87    1.1080134    72.089455    72.089455    144.17891 
   26900    73382     298.4448   -189.71612     -8136273    65280.269   -8070992.7    748946.37    1.1085097    72.078694    72.078694    144.15739 
   27000    73382    300.48492   -802.78451     -8136223    65726.516   -8070496.5    749274.91    1.1080237    72.089232    72.089232    144.17846 
   27100    73382    301.61867    89.006854   -8135954.9    65974.506   -8069980.4    748962.64    1.1084857    72.079216    72.079216    144.15843 
   27200    73382    301.50961   -48.536129   -8135937.6     65950.65     -8069987    748313.14    1.1094478    72.058374    72.058374    144.11675 
   27300    73382    300.08431   -384.97789   -8136178.1    65638.888   -8070539.2    748318.99    1.1094391    72.058562    72.058562    144.11712 
   27400    73382    298.24848   -132.78878   -8136256.5    65237.329   -8071019.2    748039.98    1.1098529    72.049605    72.049605    144.09921 
   27500    73382    300.00781   -392.03279   -8136569.4    65622.154   -8070947.2    748016.88    1.1098872    72.048864    72.048864    144.09773 
   27600    73382    299.62086   -1053.4716   -8136199.6    65537.515   -8070662.1    747528.53    1.1106122    72.033181    72.033181    144.06636 
   27700    73382    302.11412   -1196.6474   -8136400.5    66082.879   -8070317.7    746671.09    1.1118876    72.005629    72.005629    144.01126 
   27800    73382    298.83652   -665.00249   -8135771.2    65365.952   -8070405.3    746268.74    1.1124871    71.992693    71.992693    143.98539 
   27900    73382    300.79741   -463.00131   -8136279.5    65794.868   -8070484.6    746922.76     1.111513    72.013718    72.013718    144.02744 
   28000    73382    302.39757   -1216.6946   -8136740.8    66144.879   -8070595.9    746828.74    1.1116529    72.010696    72.010696    144.02139 
   28100    73382    299.22084    99.740765   -8136383.4    65450.018   -8070933.4    745440.68    1.1137229    71.966055    71.966055    143.93211 
   28200    73382    299.04465   -1181.8906   -8136275.4    65411.479   -8070863.9     745708.8    1.1133224    71.974683    71.974683    143.94937 
   28300    73382    299.91323   -692.58662   -8136256.5    65601.467     -8070655     745752.5    1.1132572    71.976088    71.976088    143.95218 
   28400    73382    301.00263     1265.577     -8136374    65839.758   -8070534.2    745882.31    1.1130634    71.980264    71.980264    143.96053 
   28500    73382    301.06093   -1054.2368   -8136534.7    65852.508   -8070682.2    745828.92    1.1131431    71.978547    71.978547    143.95709 
   28600    73382    299.42571   -1109.4846   -8136459.3     65494.83   -8070964.5    745618.45    1.1134573    71.971776    71.971776    143.94355 
   28700    73382     299.2741    8.0408549   -8136508.5    65461.667   -8071046.9    745746.49    1.1132662    71.975895    71.975895    143.95179 
   28800    73382    299.40336    -247.7754   -8136528.6     65489.94   -8071038.7    746311.68    1.1124231    71.994074    71.994074    143.98815 
   28900    73382    300.38207    12.770834   -8136541.5    65704.018   -8070837.5    746009.57    1.1128736    71.984358    71.984358    143.96872 
   29000    73382    300.14921    187.93185   -8136240.1    65653.083     -8070587     745393.1     1.113794    71.964524    71.964524    143.92905 
   29100    73382    301.68612   -377.48621   -8136407.5     65989.26   -8070418.2    744949.33    1.1144575     71.95024     71.95024    143.90048 
   29200    73382    300.22672    194.44531   -8136331.8    65670.039   -8070661.7    744768.57    1.1147279     71.94442     71.94442    143.88884 
   29300    73382     299.5041     288.8561   -8136521.8    65511.975   -8071009.9    744236.48    1.1155249    71.927283    71.927283    143.85457 
   29400    73382    298.33751    1188.3288     -8136378    65256.802   -8071121.2    743879.44    1.1160603    71.915779    71.915779    143.83156 
   29500    73382    299.34793   -628.52946   -8136328.4    65477.815   -8070850.6    744499.23    1.1151312    71.935746    71.935746    143.87149 
   29600    73382    301.27869   -214.29107   -8136301.6     65900.14   -8070401.5    744196.99    1.1155841     71.92601     71.92601    143.85202 
   29700    73382    300.98221    358.96255   -8136167.7     65835.29   -8070332.4    744020.91    1.1158481    71.920337    71.920337    143.84067 
   29800    73382    300.34685    314.25294   -8136446.8    65696.315   -8070750.5    744427.92     1.115238    71.933449    71.933449     143.8669 
   29900    73382    299.45807   -382.69312   -8136754.9    65501.909     -8071253    744098.52    1.1157317    71.922838    71.922838    143.84568 
   30000    73382    299.38078    139.49964   -8136884.6    65485.002   -8071399.6    743874.79    1.1160673    71.915629    71.915629    143.83126 
   30100    73382    299.61134   -22.283926   -8136760.7    65535.433   -8071225.3    744168.69    1.1156265    71.925099    71.925099     143.8502 
   30200    73382    301.14537    1900.3553   -8136930.3     65870.98   -8071059.4    743310.83    1.1169141     71.89745     71.89745     143.7949 
   30300    73382    299.89874    586.57462   -8136627.1    65598.298   -8071028.8    743597.62    1.1164833    71.906696    71.906696    143.81339 
   30400    73382    299.72416    243.92553   -8136605.5    65560.112   -8071045.4    743345.56    1.1168619     71.89857     71.89857    143.79714 
   30500    73382    298.36436   -493.66217   -8136438.2    65262.675   -8071175.5    742841.76    1.1176194    71.882323    71.882323    143.76465 
   30600    73382    299.34426    500.47709   -8136749.7    65477.014   -8071272.6    742624.21    1.1179468    71.875305    71.875305    143.75061 
   30700    73382    301.00973    783.26095   -8137245.4    65841.311   -8071404.1    743348.54    1.1168574    71.898666    71.898666    143.79733 
   30800    73382    299.86597    1765.9844   -8137185.1     65591.13     -8071594    743241.39    1.1170184    71.895211    71.895211    143.79042 
   30900    73382    300.66065    165.32288   -8137247.6    65764.954   -8071482.7    742865.37    1.1175838    71.883085    71.883085    143.76617 
   31000    73382    301.43749   -251.63691   -8137077.7    65934.876   -8071142.8    742336.53      1.11838    71.866023    71.866023    143.73205 
   31100    73382    300.17742     240.4575   -8136680.4    65659.254   -8071021.2    742132.77    1.1186871    71.859447    71.859447    143.71889 
   31200    73382    300.41697    1980.1681   -8136851.9    65711.653   -8071140.2    742370.09    1.1183295    71.867106    71.867106    143.73421 
   31300    73382    301.27565    -22.37609   -8137229.6    65899.475   -8071330.1    741879.38    1.1190692    71.851268    71.851268    143.70254 
   31400    73382    298.45379   -304.36981   -8136907.3    65282.236     -8071625    741452.06    1.1197141     71.83747     71.83747    143.67494 
   31500    73382    299.58546    1302.4219   -8137082.2    65529.772   -8071552.5    741363.82    1.1198474     71.83462     71.83462    143.66924 
   31600    73382    300.86481    648.80484   -8137129.4    65809.611   -8071319.8    741787.88    1.1192072    71.848314    71.848314    143.69663 
   31700    73382    299.63897    273.49615   -8136760.2    65541.476   -8071218.7    741537.72    1.1195848    71.840236    71.840236    143.68047 
   31800    73382    300.12236   -429.23027   -8136798.5    65647.212   -8071151.3    741423.62    1.1197571    71.836551    71.836551     143.6731 
   31900    73382    299.48511   -816.37882   -8136708.3    65507.823   -8071200.5    741503.99    1.1196357    71.839147    71.839147    143.67829 
   32000    73382    300.76952   -117.29751   -8137130.6    65788.768   -8071341.8    741828.16    1.1191464    71.849614    71.849614    143.69923 
   32100    73382    298.67367    1392.8402   -8136988.7    65330.331   -8071658.4       741469    1.1196885    71.838017    71.838017    143.67603 
   32200    73382    298.41765    518.70622   -8137085.4    65274.333   -8071811.1    741455.36    1.1197091    71.837576    71.837576    143.67515 
   32300    73382    298.84283    256.34113   -8136940.8    65367.332   -8071573.5    741834.22    1.1191373     71.84981     71.84981    143.69962 
   32400    73382    300.24084   -61.702731   -8136690.2    65673.127     -8071017    742119.45    1.1187071    71.859017    71.859017    143.71803 
   32500    73382    300.98084   -294.91512   -8136627.5    65834.991   -8070792.5    741350.36    1.1198677    71.834185    71.834185    143.66837 
   32600    73382    301.18716   -20.156594   -8136801.4    65880.119   -8070921.2     741072.1    1.1202882    71.825196    71.825196    143.65039 
   32700    73382    299.39179   -861.01386   -8136773.3     65487.41   -8071285.9     741500.5     1.119641    71.839034    71.839034    143.67807 
   32800    73382     299.3694   -1159.1458     -8136969    65482.512   -8071486.5    741328.08    1.1199014    71.833465    71.833465    143.66693 
   32900    73382    298.87039     925.1596     -8136903    65373.362   -8071529.7    740345.38    1.1213879    71.801711    71.801711    143.60342 
   33000    73382    300.94464    1783.8866   -8137154.3    65827.072   -8071327.3    740282.61     1.121483    71.799681    71.799681    143.59936 
   33100    73382    299.49917    499.68529     -8136830    65510.898   -8071319.1    739989.53    1.1219271    71.790205    71.790205    143.58041 
   33200    73382     300.1382   -232.14906   -8137013.9    65650.677   -8071363.2    739618.96    1.1224893    71.778219    71.778219    143.55644 
   33300    73382    298.97375     1318.697   -8136888.8     65395.97   -8071492.8    738655.74     1.123953    71.747046    71.747046    143.49409 
   33400    73382    300.08416   -163.50846     -8137256    65638.856   -8071617.2    738048.03    1.1248785    71.727365    71.727365    143.45473 
   33500    73382    301.13083   -1265.9954   -8137537.2    65867.799   -8071669.4    738669.46    1.1239321    71.747491    71.747491    143.49498 
   33600    73382    298.73648      485.339     -8137067     65344.07   -8071722.9    738825.47    1.1236948    71.752541    71.752541    143.50508 
   33700    73382    300.37134    82.731638   -8137256.9    65701.672   -8071555.2    738564.61    1.1240917    71.744096    71.744096    143.48819 
   33800    73382    300.89923    484.42326   -8137405.4    65817.141   -8071588.3     737929.6     1.125059    71.723528    71.723528    143.44706 
   33900    73382    300.14616   -399.63003   -8137306.3    65652.417   -8071653.8    738271.92    1.1245373    71.734617    71.734617    143.46923 
   34000    73382    300.38798    623.79536     -8137360    65705.311   -8071654.7    738232.14    1.1245979    71.733329    71.733329    143.46666 
   34100    73382    300.80436   -417.35318   -8137427.7    65796.387   -8071631.3    737643.67    1.1254951    71.714263    71.714263    143.42853 
   34200    73382    300.47035   -799.03862   -8137281.4    65723.329   -8071558.1    737842.83    1.1251913    71.720717    71.720717    143.44143 
   34300    73382    299.80049   -1527.7853   -8137149.8    65576.808     -8071573    737881.81    1.1251319     71.72198     71.72198    143.44396 
   34400    73382    299.71613    150.07366   -8137179.7    65558.355   -8071621.4    737027.69    1.1264357    71.694296    71.694296    143.38859 
   34500    73382    298.65533    203.69155   -8137159.5     65326.32   -8071833.1     737235.8    1.1261178    71.701043    71.701043    143.40209 
   34600    73382    299.88469   -240.11394   -8137602.2    65595.224     -8072007     737420.4    1.1258359    71.707027    71.707027    143.41405 
   34700    73382    299.55711    -1.835476     -8137470    65523.572   -8071946.5    737885.73    1.1251259    71.722107    71.722107    143.44421 
   34800    73382    298.93616   -173.52335   -8137068.8    65387.747     -8071681    737811.06    1.1252398    71.719688    71.719688    143.43938 
   34900    73382    299.56258   -1205.1316   -8136828.3    65524.768   -8071303.5    737433.89    1.1258153    71.707464    71.707464    143.41493 
   35000    73382    301.46647   -1679.0368   -8137038.5    65941.214   -8071097.3    737365.65    1.1259195    71.705252    71.705252     143.4105 
   35100    73382     300.9288   -1361.1646   -8137262.5    65823.607   -8071438.9    737050.77    1.1264005    71.695044    71.695044    143.39009 
   35200    73382    298.72253    272.44252   -8137241.9    65341.019   -8071900.8    737167.48    1.1262221    71.698828    71.698828    143.39766 
   35300    73382     299.0224   -1028.8149   -8137468.5    65406.612   -8072061.9     736883.3    1.1266565    71.689613    71.689613    143.37923 
   35400    73382     299.3018    -998.7271   -8137319.6    65467.726   -8071851.9    736728.15    1.1268937    71.684582    71.684582    143.36916 
   35500    73382     300.0154    544.73376   -8137159.4    65623.816   -8071535.6    736675.76    1.1269739    71.682883    71.682883    143.36577 
   35600    73382    301.60365     -538.987   -8137354.7     65971.22   -8071383.5     735975.8    1.1280457    71.660172    71.660172    143.32034 
   35700    73382    300.08491    202.38937   -8137238.5    65639.019   -8071599.5    735255.87    1.1291502    71.636798    71.636798     143.2736 
   35800    73382    299.75755   -663.05503   -8137629.2    65567.414   -8072061.8    735088.47    1.1294074    71.631361    71.631361    143.26272 
   35900    73382    297.63803    2255.2265   -8137577.9    65103.802   -8072474.1    734770.79    1.1298957    71.621041    71.621041    143.24208 
   36000    73382    299.75898    -325.8654   -8137682.5    65567.728   -8072114.8    735332.24     1.129033    71.639279    71.639279    143.27856 
   36100    73382    300.99341   -2056.8632   -8137533.2    65837.741   -8071695.4    734881.57    1.1297253     71.62464     71.62464    143.24928 
   36200    73382    301.05979   -124.34405   -8137345.4    65852.259   -8071493.1    734776.79    1.1298864    71.621236    71.621236    143.24247 
   36300    73382    299.73393   -412.35305   -8137386.7    65562.249   -8071824.5    735157.31    1.1293016    71.633597    71.633597    143.26719 
   36400    73382    298.60906    128.35669   -8137595.7    65316.199   -8072279.5    734753.97    1.1299215    71.620494    71.620494    143.24099 
   36500    73382    299.03438    -1731.705   -8137637.3    65409.232   -8072228.1    734526.99    1.1302707    71.613119    71.613119    143.22624 
   36600    73382    301.20774   -598.55002   -8137731.8    65884.621   -8071847.2    734341.37    1.1305564    71.607086    71.607086    143.21417 
   36700    73382    301.27503   -2067.9459   -8137574.8    65899.339   -8071675.5    735054.06    1.1294602    71.630244    71.630244    143.26049 
   36800    73382    300.03784   -104.42516   -8137342.2    65628.723   -8071713.4    734730.23     1.129958    71.619723    71.619723    143.23945 
   36900    73382    299.61632   -824.63554   -8137191.2    65536.522   -8071654.7    734901.86    1.1296942    71.625299    71.625299     143.2506 
   37000    73382    299.91006   -192.90025   -8137308.8    65600.773     -8071708    735038.77    1.1294837    71.629747    71.629747    143.25949 
   37100    73382    300.03544    295.61914   -8137581.8    65628.198   -8071953.6    735295.71    1.1290891    71.638092    71.638092    143.27618 
   37200    73382    298.30819   -855.06885   -8137586.7     65250.39   -8072336.3    734811.59    1.1298329    71.622367    71.622367    143.24473 
   37300    73382    298.35287   -151.07209   -8137496.9    65260.162   -8072236.7    734612.61     1.130139    71.615901    71.615901     143.2318 
   37400    73382    299.36744    -622.4734   -8137260.1    65482.083     -8071778    734747.53    1.1299314    71.620285    71.620285    143.24057 
   37500    73382    300.97829   -244.27691   -8137267.2    65834.433   -8071432.8    734289.97    1.1306355    71.605415    71.605415    143.21083 
   37600    73382    302.23243    220.58954   -8137666.4    66108.756   -8071557.6    733192.09    1.1323286     71.56971     71.56971    143.13942 
   37700    73382    298.07585    68.788138   -8137391.2    65199.568   -8072191.6    733088.02    1.1324893    71.566324    71.566324    143.13265 
   37800    73382     299.7882    288.59941   -8138090.7    65574.119   -8072516.6    732928.94    1.1327351    71.561147    71.561147    143.12229 
   37900    73382    298.46012   -701.02022   -8137732.1     65283.62   -8072448.5    732853.64    1.1328515    71.558696    71.558696    143.11739 
   38000    73382     300.1448   -361.70683     -8137477    65652.119   -8071824.9    732254.87    1.1337778    71.539202    71.539202     143.0784 
   38100    73382    301.28414   -36.085523   -8137298.8    65901.333   -8071397.4    732173.82    1.1339033    71.536562    71.536562    143.07312 
   38200    73382    300.40593    210.00268   -8137374.1    65709.239   -8071664.8     732884.1    1.1328044    71.559687    71.559687    143.11937 
   38300    73382    298.53539   -1108.7554   -8137698.4    65300.085   -8072398.3    732450.36    1.1334752    71.545568    71.545568    143.09114 
   38400    73382    298.31496   -342.38379   -8137910.5    65251.869   -8072658.6    732372.97     1.133595    71.543048    71.543048     143.0861 
   38500    73382    299.87253    645.96404   -8137890.2    65592.565   -8072297.7    731952.33    1.1342465    71.529348    71.529348     143.0587 
   38600    73382    300.88249    432.32202     -8137578    65813.478   -8071764.6    731753.97    1.1345539    71.522886    71.522886    143.04577 
   38700    73382    300.51671   -1026.3225   -8137304.6     65733.47   -8071571.1    732406.43    1.1335432    71.544137    71.544137    143.08827 
   38800    73382    300.56409    164.18215   -8137542.9    65743.832   -8071799.1    732122.31    1.1339831    71.534885    71.534885    143.06977 
   38900    73382     299.9774   -535.81016   -8137685.7    65615.504   -8072070.1    731577.63    1.1348274     71.51714     71.51714    143.03428 
   39000    73382    301.06343    224.65186   -8137843.3    65853.056   -8071990.3    732044.29     1.134104    71.532344    71.532344    143.06469 
   39100    73382    299.21047   -1172.4673   -8137492.6    65447.749   -8072044.9    732149.22    1.1339414    71.535761    71.535761    143.07152 
   39200    73382    299.96467    1976.9746   -8137700.2    65612.718   -8072087.5    732257.38    1.1337739    71.539284    71.539284    143.07857 
   39300    73382     299.6839   -611.74602   -8137523.2    65551.305   -8071971.9    732628.19    1.1332001    71.551357    71.551357    143.10271 
   39400    73382    300.16306   -574.04646     -8137510    65656.114   -8071853.8    731709.05    1.1346236    71.521422    71.521422    143.04284 
   39500    73382     300.6918   -1408.8091   -8137498.6    65771.768   -8071726.8    731754.91    1.1345525    71.522917    71.522917    143.04583 
   39600    73382    301.21224      -145.39     -8137850    65885.605   -8071964.4    732006.52    1.1341625    71.531113    71.531113    143.06223 
   39700    73382    300.73005    923.16318   -8138239.1    65780.134     -8072459    731697.22    1.1346419    71.521037    71.521037    143.04207 
   39800    73382    299.77599    1885.1195   -8138357.3    65571.447   -8072785.9     731899.4    1.1343285    71.527624    71.527624    143.05525 
   39900    73382    299.55276    -300.1055     -8138065    65522.619   -8072542.3    732093.44    1.1340278    71.533945    71.533945    143.06789 
   40000    73382    300.32406   -130.66399   -8137708.3    65691.329     -8072017    732025.78    1.1341326    71.531741    71.531741    143.06348 
   40100    73382    301.45613    34.648813   -8137679.3    65938.953   -8071740.3     731596.3    1.1347984    71.517749    71.517749     143.0355 
   40200    73382    299.33515    273.44868   -8137364.8     65475.02   -8071889.8    731877.85    1.1343619    71.526922    71.526922    143.05384 
   40300    73382    300.51831     846.8052   -8137880.4    65733.819   -8072146.6    731733.43    1.1345858    71.522217    71.522217    143.04443 
   40400    73382    298.62052   -161.64421     -8137725    65318.706   -8072406.3    732203.04    1.1338581    71.537514    71.537514    143.07503 
   40500    73382     298.8962    457.02044   -8137860.9    65379.008   -8072481.8    731982.57    1.1341996    71.530333    71.530333    143.06067 
   40600    73382     299.8182    691.18204   -8137986.2    65580.681   -8072405.5    731628.79     1.134748    71.518807    71.518807    143.03761 
   40700    73382    300.82295    167.10842   -8138077.8    65800.454   -8072277.3    732271.89    1.1337515    71.539756    71.539756    143.07951 
   40800    73382    299.81604   -166.97465   -8137841.1    65580.208   -8072260.9    732290.96    1.1337219    71.540377    71.540377    143.08075 
   40900    73382    299.39384   -1779.7192   -8137686.4    65487.858   -8072198.5    732162.64    1.1339207    71.536198    71.536198     143.0724 
   41000    73382    301.19609   -311.46963   -8137966.7    65882.073   -8072084.6    732168.95    1.1339109    71.536404    71.536404    143.07281 
   41100    73382    299.17326   -977.09752   -8137670.6     65439.61     -8072231    732173.16    1.1339044    71.536541    71.536541    143.07308 
   41200    73382    299.38837    -357.6652   -8137726.7    65486.661   -8072240.1    732679.84    1.1331202    71.553039    71.553039    143.10608 
   41300    73382    299.89406    747.74112   -8137708.5    65597.273   -8072111.3    732943.74    1.1327122    71.561628    71.561628    143.12326 
   41400    73382    301.07037    597.31148   -8137838.2    65854.573   -8071983.6     732502.3    1.1333949    71.547259    71.547259    143.09452 
   41500    73382    300.10579   -210.64799   -8137685.6    65643.586   -8072042.1    732622.48    1.1332089    71.551171    71.551171    143.10234 
   41600    73382    299.83701   -388.19247   -8137780.3    65584.796   -8072195.5    733055.44    1.1325396    71.565264    71.565264    143.13053 
   41700    73382    299.54998   -1014.6441   -8137915.1    65522.011     -8072393    732378.97    1.1335857    71.543243    71.543243    143.08649 
   41800    73382    299.06067   -643.60697   -8137790.1    65414.982   -8072375.2    732285.68    1.1337301    71.540205    71.540205    143.08041 
   41900    73382    299.79109   -512.29146   -8137859.1     65574.75   -8072284.4    732297.72    1.1337115    71.540597    71.540597    143.08119 
   42000    73382     297.8269   -108.15918   -8137562.8    65145.114   -8072417.7     732569.8    1.1332904    71.549457    71.549457    143.09891 
   42100    73382    299.37214     215.7805     -8137770    65483.112   -8072286.9    733439.83    1.1319461     71.57777     71.57777    143.15554 
   42200    73382    300.08178    582.18997   -8137627.8    65638.335   -8071989.5    733146.22    1.1323994    71.568218    71.568218    143.13644 
   42300    73382    300.13736    157.78583   -8137402.2    65650.493   -8071751.7    733026.57    1.1325842    71.564324    71.564324    143.12865 
   42400    73382     301.1281   -1750.1925   -8137562.9    65867.202   -8071695.7    732430.49     1.133506    71.544921    71.544921    143.08984 
   42500    73382    298.73939   -642.57939   -8137289.9    65344.708   -8071945.2     731647.5     1.134719    71.519417    71.519417    143.03883 
   42600    73382    299.88572   -643.73542   -8137860.9    65595.449   -8072265.5    731376.55    1.1351394    71.510587    71.510587    143.02117 
   42700    73382    301.73757   -256.10107   -8138432.7    66000.514   -8072432.2    730953.86    1.1357958    71.496808    71.496808    142.99362 
   42800    73382    300.98562    959.48184   -8138497.6    65836.035   -8072661.6    730792.18    1.1360471    71.491537    71.491537    142.98307 
   42900    73382     298.3849    717.04489   -8138136.4    65267.169   -8072869.3    730614.78    1.1363229    71.485751    71.485751     142.9715 
   43000    73382    299.95678   -1251.9114   -8138108.4    65610.993   -8072497.4     730717.3    1.1361635    71.489095    71.489095    142.97819 
   43100    73382     299.9573    109.86188   -8137692.6    65611.108   -8072081.5    730442.14    1.1365915     71.48012     71.48012    142.96024 
   43200    73382    300.30086    1058.3449   -8137631.4    65686.256   -8071945.1    730383.97     1.136682    71.478223    71.478223    142.95645 
   43300    73382    301.09807    869.26597   -8138082.2    65860.632   -8072221.5    729605.62    1.1378947    71.452823    71.452823    142.90565 
   43400    73382    299.80877   -269.58218   -8138272.3    65578.617   -8072693.6    729594.51     1.137912     71.45246     71.45246    142.90492 
   43500    73382    299.04761    155.12105   -8138454.9    65412.125   -8073042.7    729362.08    1.1382746    71.444872    71.444872    142.88974 
   43600    73382    298.79583   -658.67583     -8138335    65357.053     -8072978    729511.84    1.1380409    71.449761    71.449761    142.89952 
   43700    73382    299.75058   -1455.6405   -8138103.6    65565.889   -8072537.7    730181.29    1.1369975     71.47161     71.47161    142.94322 
   43800    73382    301.71626   -175.31507   -8138240.3    65995.852   -8072244.5    729923.66    1.1373989    71.463204    71.463204    142.92641 
   43900    73382    300.30196    197.05428   -8138056.4    65686.497   -8072369.9    729184.92    1.1385512    71.439087    71.439087    142.87817 
   44000    73382    300.40012    1624.7226   -8138316.8    65707.966   -8072608.8    728809.27     1.139138    71.426817    71.426817    142.85363 
   44100    73382    299.73203     1144.488   -8138184.1    65561.832   -8072622.3    728834.42    1.1390987    71.427639    71.427639    142.85528 
   44200    73382    300.32053    693.49211     -8138358    65690.558   -8072667.5    729001.73    1.1388373    71.433104    71.433104    142.86621 
   44300    73382     299.6865    466.46301   -8138184.9    65551.873   -8072633.1    728658.12    1.1393743    71.421879    71.421879    142.84376 
   44400    73382    300.34739    629.24646   -8138158.5    65696.432   -8072462.1    728180.53    1.1401216    71.406271    71.406271    142.81254 
   44500    73382    302.08627   -1428.6451   -8138424.2    66076.786   -8072347.4    728806.55    1.1391423    71.426728    71.426728    142.85346 
   44600    73382    299.15285    610.95505   -8138186.4    65435.146   -8072751.3     727897.8    1.1405644    71.397028    71.397028    142.79406 
   44700    73382    298.99996   -565.95947   -8138430.8    65401.702   -8073029.1    728385.35     1.139801    71.412966    71.412966    142.82593 
   44800    73382    298.38785   -699.07304   -8138183.1    65267.814   -8072915.3    728937.21    1.1389381    71.430996    71.430996    142.86199 
   44900    73382    300.19172    441.48501   -8138118.9    65662.383   -8072456.5    729092.59    1.1386953    71.436071    71.436071    142.87214 
   45000    73382    299.88828    117.59301   -8138013.1     65596.01   -8072417.1    728786.11    1.1391742     71.42606     71.42606    142.85212 
   45100    73382    300.95489   -13.445703   -8138303.7    65829.315   -8072474.4    728860.38    1.1390581    71.428487    71.428487    142.85697 
   45200    73382    299.31229   -599.91063   -8138195.1     65470.02   -8072725.1    729015.45    1.1388158    71.433552    71.433552     142.8671 
   45300    73382    299.16079    56.381393   -8138422.7    65436.882   -8072985.8    728149.55    1.1401701    71.405259    71.405259    142.81052 
   45400    73382     299.4134    290.41215   -8138646.2    65492.137   -8073154.1    727958.92    1.1404687    71.399027    71.399027    142.79805 
   45500    73382    300.26384    444.15528   -8138586.4    65678.158   -8072908.3    727618.84    1.1410017    71.387907    71.387907    142.77581 
   45600    73382    301.65259   -221.44812   -8138567.1    65981.927   -8072585.1    727170.81    1.1417047    71.373251    71.373251     142.7465 
   45700    73382    300.24024   -692.58361   -8138131.8    65672.995   -8072458.9    727044.73    1.1419027    71.369126    71.369126    142.73825 
   45800    73382     300.6069     884.9269   -8138040.6    65753.198   -8072287.4    726890.86    1.1421444    71.364091    71.364091    142.72818 
   45900    73382    300.78257   -738.92717   -8137926.9    65791.622   -8072135.3    727312.06     1.141483    71.377872    71.377872    142.75574 
   46000    73382    300.29424    434.50098   -8137923.5    65684.807   -8072238.7    727353.64    1.1414177    71.379232    71.379232    142.75846 
   46100    73382    300.49422   -177.97519   -8138452.2     65728.55   -8072723.6    727462.59    1.1412468    71.382796    71.382796    142.76559 
   46200    73382    298.74945    -125.7475   -8138243.3    65346.908   -8072896.4     727404.6    1.1413378    71.380899    71.380899     142.7618 
   46300    73382    300.07792    257.15498   -8138312.8    65637.491   -8072675.3    727495.97    1.1411944    71.383888    71.383888    142.76778 
   46400    73382    298.08679   -296.57997   -8137700.6    65201.961   -8072498.6    727328.03    1.1414579    71.378395    71.378395    142.75679 
   46500    73382    301.78469    289.75993     -8138618     66010.82   -8072607.1    727616.75     1.141005    71.387838    71.387838    142.77568 
   46600    73382    298.64363    236.09465     -8138441    65323.762   -8073117.3    728553.94    1.1395372    71.418475    71.418475    142.83695 
   46700    73382    299.28008   -323.95986   -8138476.1    65462.975   -8073013.1    728190.22    1.1401064    71.406588    71.406588    142.81318 
   46800    73382    302.28495    917.72435   -8138840.2    66120.245   -8072719.9    727717.94    1.1408463    71.391147    71.391147    142.78229 
   46900    73382     299.5433   -634.94729   -8138097.5     65520.55     -8072577    727537.13    1.1411299    71.385234    71.385234    142.77047 
   47000    73382    301.20343   -1453.1515   -8138000.6    65883.679     -8072117    727194.14    1.1416681    71.374014    71.374014    142.74803 
   47100    73382    302.59685   -612.18919   -8138189.2    66188.469   -8072000.7    726748.57     1.142368    71.359434    71.359434    142.71887 
   47200    73382    300.86789   -271.37571   -8138447.7    65810.284   -8072637.5    725916.37    1.1436777    71.332186    71.332186    142.66437 
   47300    73382    300.66839   -469.00439   -8138605.1    65766.647   -8072838.5    725383.95    1.1445171    71.314742    71.314742    142.62948 
   47400    73382    300.46173   -2095.6968   -8138811.3    65721.442   -8073089.9    726259.82    1.1431368    71.343434    71.343434    142.68687 
   47500    73382    298.18696   -271.32288   -8138430.8    65223.872   -8073206.9    725993.23    1.1435566    71.334703    71.334703    142.66941 
   47600    73382    300.40528   -489.37555   -8138530.6    65709.095   -8072821.5    726143.44      1.14332    71.339622    71.339622    142.67924 
   47700    73382    299.86653    1069.2375   -8138229.3    65591.252     -8072638    726393.46    1.1429265    71.347809    71.347809    142.69562 
   47800    73382    299.47495    755.58031   -8138117.1      65505.6   -8072611.5    726603.35    1.1425964     71.35468     71.35468    142.70936 
   47900    73382    299.82665    -1.692059   -8138267.9    65582.529   -8072685.3    726783.86    1.1423126    71.360589    71.360589    142.72118 
   48000    73382    299.16309   -593.66062   -8138663.9    65437.386   -8073226.6     726353.6    1.1429892    71.346504    71.346504    142.69301 
   48100    73382    299.29207    353.80034   -8138762.8    65465.598   -8073297.3    726068.98    1.1434373    71.337184    71.337184    142.67437 
   48200    73382    300.52681   -726.23393   -8138691.7    65735.679     -8072956    726080.21    1.1434196    71.337552    71.337552     142.6751 
   48300    73382    300.23764    574.68847   -8138476.7    65672.428   -8072804.3    725549.57    1.1442559    71.320169    71.320169    142.64034 
   48400    73382    301.68246   -363.98666     -8138646     65988.46   -8072657.5    725745.86    1.1439464      71.3266      71.3266     142.6532 
   48500    73382    301.98829   -190.62089   -8138363.5    66055.355   -8072308.2     725587.6    1.1441959    71.321415    71.321415    142.64283 
   48600    73382    302.22425    960.37285   -8138279.6    66106.968   -8072172.6    725879.43    1.1437359    71.330976    71.330976    142.66195 
   48700    73382    300.18114    1605.6867   -8138353.9    65660.068   -8072693.8    726154.72    1.1433023    71.339992    71.339992    142.67998 
   48800    73382    300.27397    1673.3166   -8138556.3    65680.373   -8072875.9    725930.37    1.1436556    71.332644    71.332644    142.66529 
   48900    73382    300.22718    191.18323   -8138596.6    65670.139   -8072926.5    725837.76    1.1438015    71.329611    71.329611    142.65922 
   49000    73382     300.4453   -594.45715   -8138587.9     65717.85   -8072870.1    726863.83    1.1421869    71.363206    71.363206    142.72641 
   49100    73382    301.12626   -139.17455   -8138383.7    65866.799   -8072516.9    727033.48    1.1419204    71.368758    71.368758    142.73752 
   49200    73382    301.36111     -210.663   -8138289.5    65918.169   -8072371.3    726879.43    1.1421624    71.363717    71.363717    142.72743 
   49300    73382    300.14759    337.19958   -8138456.5    65652.731   -8072803.8    726912.93    1.1421097    71.364813    71.364813    142.72963 
   49400    73382    299.59719   -749.23939   -8138493.6    65532.339   -8072961.2    727020.16    1.1419413    71.368322    71.368322    142.73664 
   49500    73382    299.45123   -443.24986   -8138460.9    65500.411   -8072960.5    726752.39     1.142362    71.359559    71.359559    142.71912 
   49600    73382    300.73955    962.64447   -8138649.3    65782.212   -8072867.1    726531.99    1.1427086    71.352345    71.352345    142.70469 
   49700    73382    302.32531     433.3156     -8139142    66129.074   -8073012.9    725795.21    1.1438686    71.328217    71.328217    142.65643 
   49800    73382    300.18484    284.13679   -8139141.6    65660.877   -8073480.7    725614.63    1.1441533    71.322301    71.322301     142.6446 
   49900    73382     299.6562   -947.31389     -8139056    65545.245   -8073510.7    725990.31    1.1435612    71.334608    71.334608    142.66922 
   50000    73382    300.64578    -264.1318   -8138943.8    65761.701   -8073182.1     725911.6    1.1436852    71.332029    71.332029    142.66406 
   50100    73382     300.9811     1638.539   -8138755.7    65835.048   -8072920.7    725809.81    1.1438456    71.328695    71.328695    142.65739 
   50200    73382    300.28844    496.41335   -8138606.3    65683.539   -8072922.8    725933.48    1.1436507    71.332746    71.332746    142.66549 
   50300    73382    299.76508    36.455766   -8138550.9    65569.061   -8072981.8    726107.51    1.1433766    71.338446    71.338446    142.67689 
   50400    73382    299.51799    1253.8105   -8138563.5    65515.015   -8073048.5    726245.52    1.1431593    71.342965    71.342965    142.68593 
   50500    73382    300.95935   -630.91855   -8138836.1     65830.29   -8073005.8    726152.68    1.1433055    71.339925    71.339925    142.67985 
   50600    73382    299.95468    117.66789   -8138510.8    65610.533   -8072900.2    725992.21    1.1435582     71.33467     71.33467    142.66934 
   50700    73382    301.29411   -972.24712   -8138548.7    65903.514   -8072645.2     726170.4    1.1432776    71.340505    71.340505    142.68101 
   50800    73382     299.7578    901.97944   -8138145.2    65567.469   -8072577.7    726462.92    1.1428172    71.350084    71.350084    142.70017 
   50900    73382    302.10795   -141.32566   -8138636.2    66081.529   -8072554.6     726304.9    1.1430659     71.34491     71.34491    142.68982 
   51000    73382    299.60777   -1108.9877   -8138598.7    65534.653     -8073064    725926.37    1.1436619    71.332513    71.332513    142.66503 
[...]
  187600    73382    299.80362    -1065.662   -8140960.8    65577.491   -8075383.3    707968.82    1.1726708    70.739401    70.739401     141.4788 
  187700    73382    299.15447    110.68822   -8140998.5    65435.499     -8075563     708148.7    1.1723729    70.745392    70.745392    141.49078 
  187800    73382    300.41899    785.45489   -8141405.5    65712.094   -8075693.4    708801.25    1.1712936    70.767115    70.767115    141.53423 
  187900    73382    299.70298    618.67146   -8141833.2    65555.477   -8076277.7    708861.73    1.1711936    70.769128    70.769128    141.53826 
  188000    73382    298.81607   -1522.7273   -8141739.3     65361.48   -8076377.9    709252.16    1.1705489    70.782118    70.782118    141.56424 
  188100    73382    299.45418    1168.0922   -8141366.1    65501.058     -8075865    708706.55    1.1714501    70.763963    70.763963    141.52793 
  188200    73382    300.84263    164.07873   -8141346.6    65804.759   -8075541.8    709026.16     1.170922      70.7746      70.7746     141.5492 
  188300    73382    299.97021    -543.9582     -8141115    65613.931   -8075501.1    708952.15    1.1710442    70.772137    70.772137    141.54427 
  188400    73382    298.88264   -1531.9592   -8140827.6    65376.042   -8075451.5     709336.2    1.1704102    70.784914    70.784914    141.56983 
  188500    73382    300.64354    134.43478   -8140916.9    65761.211   -8075155.7    709050.68    1.1708815    70.775415    70.775415    141.55083 
  188600    73382    300.57687   -310.55662   -8140658.9    65746.628   -8074912.3    708756.25    1.1713679    70.765618    70.765618    141.53124 
  188700    73382    300.17364   -1126.5838   -8140944.6    65658.428   -8075286.2    708616.59    1.1715988    70.760969    70.760969    141.52194 
  188800    73382    299.13469    326.65402   -8141102.3    65431.174   -8075671.2    708363.79    1.1720169    70.752554    70.752554    141.50511 
  188900    73382     299.5051     387.3146   -8141240.3    65512.194   -8075728.1    707704.31    1.1731091     70.73059     70.73059    141.46118 
  189000    73382    300.70635   -20.055844   -8141433.2    65774.951   -8075658.3    707634.56    1.1732247    70.728267    70.728267    141.45653 
  189100    73382     299.7619     705.0122   -8141212.3    65568.366   -8075643.9    707384.54    1.1736394    70.719935    70.719935    141.43987 
  189200    73382    300.65496   -1136.1846   -8141378.8    65763.709   -8075615.1    707728.11    1.1730696    70.731383    70.731383    141.46277 
  189300    73382    301.30347   -307.07175   -8141423.5    65905.561     -8075518    707940.19    1.1727182    70.738448    70.738448     141.4769 
  189400    73382    299.63735    353.82597   -8141264.6    65541.123   -8075723.5     707952.8    1.1726973    70.738867    70.738867    141.47773 
  189500    73382    298.83786    450.88789     -8141387    65366.246   -8076020.8    708284.43    1.1721482    70.749911    70.749911    141.49982 
  189600    73382    299.19125    -397.0367   -8141350.7    65443.545   -8075907.1    708468.41    1.1718438    70.756037    70.756037    141.51207 
  189700    73382    302.24869   -1029.6553   -8141483.1    66112.313   -8075370.8    708553.84    1.1717025    70.758881    70.758881    141.51776 
  189800    73382    302.00479    1560.9087   -8141440.5    66058.965   -8075381.5    708069.84    1.1725035    70.742765    70.742765    141.48553 
  189900    73382    300.53812   -650.68186   -8141421.9    65738.152   -8075683.7    708386.66    1.1719791    70.753315    70.753315    141.50663 
  190000    73382    299.35896   -316.34754   -8141297.8    65480.229   -8075817.6    708288.65    1.1721412    70.750052    70.750052     141.5001 
  190100    73382    299.94159   -1909.6231   -8141405.5    65607.671   -8075797.8    708473.94    1.1718347    70.756221    70.756221    141.51244 
  190200    73382    300.08308   -1033.5763   -8141177.1    65638.619   -8075538.5    708387.06    1.1719784    70.753328    70.753328    141.50666 
  190300    73382    301.32028   -726.38546   -8140968.5    65909.237   -8075059.3    708243.79    1.1722155    70.748558    70.748558    141.49712 
  190400    73382    301.06456   -38.525112   -8141007.6    65853.304   -8075154.3    708280.17    1.1721553     70.74977     70.74977    141.49954 
  190500    73382    300.59928   -1479.6727   -8141219.8     65751.53   -8075468.2    708592.84     1.171638    70.760179    70.760179    141.52036 
  190600    73382    300.13649   -722.08779   -8141224.5    65650.301   -8075574.2    708967.44     1.171019    70.772646    70.772646    141.54529 
  190700    73382    299.80428    1097.8708   -8141355.2    65577.636   -8075777.6     708263.6    1.1721827    70.749218    70.749218    141.49844 
  190800    73382    299.43337   -1809.6658   -8141559.1    65496.504   -8076062.6    708686.23    1.1714837    70.763287    70.763287    141.52657 
  190900    73382    299.91458   -301.45487   -8141686.8    65601.763   -8076085.1    708541.14    1.1717235    70.758458    70.758458    141.51692 
  191000    73382     299.6045    92.121104     -8141335    65533.938     -8075801    708825.78     1.171253    70.767932    70.767932    141.53586 
  191100    73382    299.62606    335.70266   -8141209.1    65538.654   -8075670.4    708766.59    1.1713508    70.765962    70.765962    141.53192 
  191200    73382      300.392   -966.94875   -8141389.3    65706.191   -8075683.1    708368.97    1.1720083    70.752726    70.752726    141.50545 
  191300    73382    298.84831   -189.84607     -8141044    65368.531   -8075675.5    708361.93      1.17202    70.752492    70.752492    141.50498 
  191400    73382    301.13677   -1587.5157   -8141167.5    65869.097   -8075298.4    708600.91    1.1716247    70.760448    70.760448     141.5209 
  191500    73382    300.42278    1812.4977   -8141192.6    65712.923   -8075479.7    708343.32    1.1720508    70.751872    70.751872    141.50374 
  191600    73382    300.76121     218.0649   -8141535.1    65786.951   -8075748.2    708113.13    1.1724318    70.744207    70.744207    141.48841 
  191700    73382    299.62553     293.5979   -8141379.7    65538.536   -8075841.2    707612.98    1.1732605    70.727547    70.727547    141.45509 
  191800    73382    300.14747    1854.0477   -8141337.7    65652.704     -8075685    707513.26    1.1734258    70.724225    70.724225    141.44845 
  191900    73382    301.04497    904.14241   -8141357.4    65849.019   -8075508.4    707837.45    1.1728884    70.735025    70.735025    141.47005 
  192000    73382    300.68748   -994.29626   -8141254.6    65770.823   -8075483.7    707795.19    1.1729584    70.733618    70.733618    141.46724 
  192100    73382    299.65901   -645.65828   -8141388.3    65545.861   -8075842.5    707799.48    1.1729513    70.733761    70.733761    141.46752 
  192200    73382    299.79108   -284.19502   -8141725.4    65574.748   -8076150.6     708046.5    1.1725421    70.741988    70.741988    141.48398 
  192300    73382    298.22241   -1221.8748   -8141215.4    65231.625   -8075983.8       708691    1.1714758    70.763446    70.763446    141.52689 
  192400    73382    299.60372   -274.40997   -8141031.9    65533.767   -8075498.1    709005.64    1.1709559    70.773917    70.773917    141.54783 
  192500    73382    299.94696    672.34332   -8141090.4    65608.845   -8075481.5    709138.25    1.1707369    70.778329    70.778329    141.55666 
  192600    73382    299.60476    379.63052   -8141085.6    65533.993   -8075551.6    709129.04    1.1707521    70.778023    70.778023    141.55605 
  192700    73382    299.40108   -255.03798   -8141091.7    65489.441   -8075602.3     709245.5    1.1705599    70.781897    70.781897    141.56379 
  192800    73382    299.65648    252.30263   -8141143.6    65545.308   -8075598.3     709138.1    1.1707372    70.778324    70.778324    141.55665 
  192900    73382    300.39011    276.83378   -8141206.8    65705.777     -8075501    708828.56    1.1712484    70.768024    70.768024    141.53605 
  193000    73382    300.53693    981.19384   -8141279.5    65737.893   -8075541.6    708218.64    1.1722571    70.747721    70.747721    141.49544 
  193100    73382    299.75045   -1225.4047   -8141272.8    65565.862   -8075706.9    708245.97    1.1722119    70.748631    70.748631    141.49726 
  193200    73382    300.50459    883.73456   -8141431.5    65730.818   -8075700.7    708107.13    1.1724417    70.744007    70.744007    141.48801 
  193300    73382     300.0155    1033.8259   -8141273.1    65623.838   -8075649.2     707806.1    1.1729403    70.733981    70.733981    141.46796 
  193400    73382    300.88868    352.40258     -8141368    65814.832   -8075553.2    707904.48    1.1727773    70.737258    70.737258    141.47452 
  193500    73382     300.4292   -449.41829   -8141159.7    65714.329   -8075445.4    707984.94    1.1726441    70.739938    70.739938    141.47988 
  193600    73382    299.84766    183.31433   -8141158.9    65587.126   -8075571.7    708346.04    1.1720463    70.751963    70.751963    141.50393 
  193700    73382    298.44525    549.70632   -8141248.6    65280.369   -8075968.2    708233.07    1.1722332    70.748201    70.748201     141.4964 
  193800    73382    299.87007    -431.5219   -8141518.8    65592.027   -8075926.8    708186.13    1.1723109    70.746638    70.746638    141.49328 
  193900    73382    299.87262    1965.4552   -8141319.4    65592.583   -8075726.8    708270.69     1.172171    70.749454    70.749454    141.49891 
  194000    73382    301.48792   -61.221963   -8141156.4    65945.906   -8075210.5     708058.5    1.1725222    70.742388    70.742388    141.48478 
  194100    73382    300.72586   -177.46833   -8140938.3    65779.217   -8075159.1    707885.68    1.1728085    70.736632    70.736632    141.47326 
  194200    73382    298.91757   -987.92391   -8140905.2    65383.682   -8075521.6    707849.97    1.1728677    70.735443    70.735443    141.47089 
  194300    73382    298.58318   -42.179912   -8140984.4    65310.539   -8075673.9    708359.83    1.1720235    70.752422    70.752422    141.50484 
  194400    73382    299.66476   -660.36263   -8141155.3    65547.117   -8075608.1    708236.27    1.1722279    70.748308    70.748308    141.49662 
  194500    73382    300.93221    238.13352   -8141528.6    65824.354   -8075704.3    708597.77    1.1716299    70.760343    70.760343    141.52069 
  194600    73382    298.71115    -785.6898     -8141387    65338.529   -8076048.5    708334.25    1.1720658     70.75157     70.75157    141.50314 
  194700    73382    300.11477   -1539.9212   -8141645.5    65645.551     -8076000    708440.63    1.1718898    70.755112    70.755112    141.51022 
  194800    73382    300.04302    51.924804   -8141064.5    65629.857   -8075434.6    708603.01    1.1716212    70.760517    70.760517    141.52103 
  194900    73382     299.7851    132.83538   -8140912.9    65573.441   -8075339.4    708400.41    1.1719563    70.753773    70.753773    141.50755 
  195000    73382    299.92545   -223.85567   -8141049.9    65604.141   -8075445.8     708235.3    1.1722295    70.748276    70.748276    141.49655 
  195100    73382    299.57105   -479.43769     -8141282     65526.62   -8075755.3    708078.31    1.1724894    70.743048    70.743048     141.4861 
  195200    73382    299.75891    2649.6952   -8141577.7    65567.711     -8076010    707803.54    1.1729446    70.733896    70.733896    141.46779 
  195300    73382    300.62155    372.88638   -8141698.5    65756.402   -8075942.1    707883.26    1.1728125    70.736551    70.736551     141.4731 
  195400    73382    300.19779    223.88301   -8141392.9    65663.711   -8075729.2    707921.13    1.1727498    70.737813    70.737813    141.47563 
  195500    73382    300.18784    953.66797   -8141295.7    65661.533   -8075634.1    708125.75    1.1724109    70.744628    70.744628    141.48926 
  195600    73382    299.74269   -2195.4419   -8141128.8    65564.163   -8075564.6    708272.87    1.1721674    70.749526    70.749526    141.49905 
  195700    73382    299.74708   -731.76238   -8141168.8    65565.124   -8075603.6    707969.83    1.1726691    70.739435    70.739435    141.47887 
  195800    73382    299.53293   -1655.4795   -8141441.4    65518.281   -8075923.1    708498.43    1.1717942    70.757036    70.757036    141.51407 
  195900    73382    298.80688   -451.72232   -8141601.6     65359.47   -8076242.1    708225.24    1.1722462     70.74794     70.74794    141.49588 
  196000    73382      299.258    491.87218     -8141480    65458.146   -8076021.9    708045.59    1.1725436    70.741958    70.741958    141.48392 
  196100    73382    300.47103   -292.74324   -8141414.6    65723.478   -8075691.1    708063.27    1.1725143    70.742547    70.742547    141.48509 
  196200    73382    300.17981    241.43819   -8141305.6    65659.776   -8075645.8    707738.33    1.1730527    70.731724    70.731724    141.46345 
  196300    73382    301.36282    -21.98276   -8141597.2    65918.544   -8075678.7    708215.39    1.1722625    70.747612    70.747612    141.49522 
  196400    73382    300.32373    802.23912   -8141492.9    65691.257   -8075801.7     708113.2    1.1724317    70.744209    70.744209    141.48842 
  196500    73382    298.74581   -241.97863     -8141324    65346.111   -8075977.9    708303.06    1.1721174    70.750532    70.750532    141.50106 
  196600    73382    300.26477   -642.63462   -8141832.7     65678.36   -8076154.4    708623.98    1.1715866    70.761215    70.761215    141.52243 
  196700    73382    299.10636    614.49498   -8141485.7    65424.977   -8076060.7    707988.49    1.1726382    70.740056    70.740056    141.48011 
  196800    73382    299.99426    741.99849   -8141143.3    65619.192   -8075524.1    707985.42    1.1726433    70.739954    70.739954    141.47991 
  196900    73382    302.07018   -732.14007   -8141450.7    66073.268   -8075377.5       707984    1.1726456    70.739907    70.739907    141.47981 
  197000    73382     299.8086   -542.72489   -8141232.2     65578.58   -8075653.6    707842.68    1.1728797      70.7352      70.7352     141.4704 
  197100    73382    298.29827     127.0267   -8141163.4    65248.219   -8075915.2    707909.77    1.1727686    70.737434    70.737434    141.47487 
  197200    73382    300.01733    975.85849   -8141521.9    65624.237   -8075897.7    708122.94    1.1724155    70.744534    70.744534    141.48907 
  197300    73382    300.05854    527.56245   -8141215.9    65633.252   -8075582.7    708388.45    1.1719761    70.753375    70.753375    141.50675 
  197400    73382    301.38578   -1032.4411   -8141112.7    65923.566   -8075189.2    708867.29    1.1711844    70.769313    70.769313    141.53863 
  197500    73382     300.9525    1397.1684     -8141122    65828.791   -8075293.2    708545.96    1.1717156    70.758618    70.758618    141.51724 
  197600    73382    300.22511     736.1793   -8141374.8    65669.686   -8075705.1    708489.96    1.1718082    70.756754    70.756754    141.51351 
  197700    73382    300.22898    479.31046     -8141548    65670.533   -8075877.4    708452.88    1.1718695     70.75552     70.75552    141.51104 
  197800    73382    300.14156   -243.24135   -8141504.6    65651.411   -8075853.2    708766.14    1.1713516    70.765947    70.765947    141.53189 
  197900    73382    300.65175   -374.50302   -8141406.6    65763.008   -8075643.6    708428.78    1.1719094    70.754717    70.754717    141.50943 
  198000    73382    300.63521   -1168.8267   -8141093.3     65759.39   -8075333.9    708724.03    1.1714212    70.764545    70.764545    141.52909 
  198100    73382    302.17006   -1197.8997   -8140874.2    66095.114   -8074779.1    708950.02    1.1710478    70.772066    70.772066    141.54413 
  198200    73382    300.22202   -123.07085   -8140621.4     65669.01   -8074952.4    708849.55    1.1712137    70.768723    70.768723    141.53745 
  198300    73382    300.83156    813.25248   -8141026.4    65802.337   -8075224.1    709037.03    1.1709041    70.774961    70.774961    141.54992 
  198400    73382    300.05273    222.66856   -8141188.2     65631.98   -8075556.2    709428.94    1.1702572    70.787999    70.787999      141.576 
  198500    73382     300.8169   -1846.1269   -8141504.7     65799.13   -8075705.6    709621.87     1.169939    70.794415    70.794415    141.58883 
  198600    73382    300.30441    498.17672   -8141555.6    65687.032   -8075868.6    709641.97    1.1699059    70.795084    70.795084    141.59017 
  198700    73382    300.35507    1377.9441   -8141687.1    65698.114     -8075989    709774.13    1.1696881    70.799478    70.799478    141.59896 
  198800    73382    298.63442    974.81768   -8141261.7    65321.746     -8075940    709529.22    1.1700918    70.791334    70.791334    141.58267 
  198900    73382    300.65321    786.28984   -8141265.1    65763.327   -8075501.7    709647.99     1.169896    70.795284    70.795284    141.59057 
  199000    73382    300.73112   -812.13088   -8141178.1    65780.367   -8075397.8    709243.69    1.1705629    70.781837    70.781837    141.56367 
  199100    73382     300.0656    1146.7759   -8141218.4    65634.796   -8075583.6    709018.21    1.1709351    70.774335    70.774335    141.54867 
  199200    73382    299.26991   -700.38492   -8141483.9     65460.75   -8076023.2    709150.69    1.1707164    70.778743    70.778743    141.55749 
  199300    73382    299.54587    501.75368   -8141554.2    65521.113   -8076033.1     708885.2    1.1711548    70.769909    70.769909    141.53982 
  199400    73382    298.87539    89.824249   -8141284.4    65374.455     -8075910    709100.87    1.1707986    70.777085    70.777085    141.55417 
  199500    73382    301.58969    28.683867   -8141558.8    65968.167   -8075590.6    709454.49    1.1702151    70.788849    70.788849     141.5777 
  199600    73382    300.81826    98.669721   -8141283.6    65799.429   -8075484.1    709308.57    1.1704558    70.783995    70.783995    141.56799 
  199700    73382    300.00195    519.38066   -8141084.3    65620.873   -8075463.4    708662.39    1.1715231    70.762494    70.762494    141.52499 
  199800    73382    300.15786    146.66247   -8141131.8    65654.977   -8075476.8    709055.25     1.170874    70.775568    70.775568    141.55114 
  199900    73382    300.52608    585.12311   -8141333.9    65735.518   -8075598.4    708999.02    1.1709668    70.773697    70.773697    141.54739 
  200000    73382    299.10798    444.59314     -8141380     65425.33   -8075954.7    708941.29    1.1710622    70.771776    70.771776    141.54355 
Loop time of 94369.8 on 56 procs for 200000 steps with 73382 atoms

Performance: 0.046 ns/day, 524.277 hours/ns, 2.119 timesteps/s
96.1% CPU use with 56 MPI tasks x no OpenMP threads

MPI task timing breakdown:
Section |  min time  |  avg time  |  max time  |%varavg| %total
---------------------------------------------------------------
Pair    | 42560      | 48839      | 51860      |1305.7 | 51.75
Neigh   | 2874.8     | 3436.8     | 3927.1     | 525.8 |  3.64
Comm    | 1909.5     | 5121.6     | 11633      |3920.7 |  5.43
Output  | 8.6381     | 8.6563     | 8.8824     |   1.1 |  0.01
Modify  | 36291      | 36958      | 38087      | 251.9 | 39.16
Other   |            | 6.431      |            |       |  0.01

Nlocal:    1310.39 ave 1445 max 1084 min
Histogram: 1 5 5 2 7 0 6 11 10 9
Nghost:    13131.8 ave 13978 max 12141 min
Histogram: 7 5 2 4 2 6 9 12 7 2
Neighs:    1.23726e+06 ave 1.43727e+06 max 972484 min
Histogram: 4 9 2 5 0 2 5 14 11 4

Total # of neighbors = 69286623
Ave neighs/atom = 944.191
Neighbor list builds = 20000
Dangerous builds not checked
write_restart	restart.npt_equi
unfix npt_equi
undump npt_dump


Please see the log.cite file for references relevant to this simulation

Total wall time: 26:14:39
