LAMMPS (2 Aug 2019)
# three cnt with 10% -OH functionalization
# lammps code to simulate tension test on RVE of nanocomposite with crack
# crack needs to be initiated first
# system is already equilibrated
# delete some atoms from a region to intiate a crack
# no cnt fix in MS equilibration
# load equilibrated structure

read_restart    restart.npt_equi
  restoring atom style charge from restart
  orthogonal box = (0.620769 2.5078 -5.35027) to (70.7779 72.665 134.964)
  2 by 4 by 7 MPI processor grid
  pair style reax/c stores no restart info
  73155 atoms
  read_restart CPU = 0.183849 secs

# ReaxFF potential to define interatomic interactions

pair_style	reax/c control_file lgvdw yes
pair_coeff	* * ffield.reax.lg C C H O H C C C O O C C
Reading potential file ffield.reax.lg with DATE: 2012-01-06

neighbor	4 bin
neigh_modify	every 10 delay 0 check no

thermo 100
thermo_style custom step atoms temp press pe ke etotal vol density lx ly lz      #output variables

compute pnc_temp all temp
compute pnc_pe all pe/atom
compute pnc_stress all stress/atom pnc_temp pair bond
compute pnc_str all reduce sum c_pnc_stress[3]

variable tmpz equal "lz"
variable L0z equal ${tmpz}
variable L0z equal 140.314329518655
variable tmpx equal "lx"
variable L0x equal ${tmpx}
variable L0x equal 70.1571647593275
variable tmpy equal "ly"
variable L0y equal ${tmpy}
variable L0y equal 70.1571647593274

# define groups of atoms to delete

fix std all qeq/reax 1 0.0 10.0 1e-6 reax/c

region atoms_for_deletion block EDGE 20.0 EDGE EDGE 66.231865 68.731865              # NOTE: box size will change after equilibration
delete_atoms region atoms_for_deletion
Deleted 356 atoms, new total = 72799
reset_ids
Resetting atom IDs ...
Unused restart file global fix info:
  fix style: npt, fix ID: npt_equi
Neighbor list info ...
  update every 10 steps, delay 0 steps, check no
  max neighbors/atom: 2000, page size: 100000
  master list distance cutoff = 14
  ghost atom cutoff = 14
  binsize = 7, bins = 11 11 21
  2 neighbor lists, perpetual/occasional/extra = 2 0 0
  (1) pair reax/c, perpetual
      attributes: half, newton off, ghost
      pair build: half/bin/newtoff/ghost
      stencil: half/ghost/bin/3d/newtoff
      bin: standard
  (2) fix qeq/reax, perpetual, copy from (1)
      attributes: half, newton off, ghost
      pair build: copy
      stencil: none
      bin: none

reset_timestep 0
timestep 0.25
thermo_style custom step atoms temp press pe ke etotal vol density lx ly lz
fix 1 all npt temp 300.0 300.0 25.0 x 0.0 0.0 250.0 y 0.0 0.0 250.0 couple xy
fix 2 all deform 1 z erate 0.00001 units box
fix bd all reax/c/bonds 1000 bonds.reaxc
dump deform1 all custom 1000 dump.deform id type x y z

variable strainz equal "(lz-v_L0z)/v_L0z"
variable strainx equal "(lx-v_L0x)/v_L0x"
variable strainy equal "(ly-v_L0y)/v_L0y"
variable stressz equal "-pzz/10000"
variable p1 equal "v_stressz"
variable p2 equal "v_strainz"
variable p3 equal "v_strainx"
variable p4 equal "v_strainy"
fix 3 all print 100 "${p1} ${p2} ${p3} ${p4}" file pmma_pnc_crack.txt screen no

run 400000
Per MPI rank memory allocation (min/avg/max) = 310.3 | 328.9 | 344.4 Mbytes
Step Atoms Temp Press PotEng KinEng TotEng Volume Density Lx Ly Lz 
       0    72799    300.33508   -74.931574   -8061557.9    65171.814   -7996386.1    690631.03    1.1928442    70.157165    70.157165    140.31433 
     100    72799    305.88596    190.91551   -8063440.2    66376.338   -7997063.8    690173.91    1.1936343    70.125178    70.125178    140.34941 
     200    72799     306.2503    517.64803   -8064600.4    66455.399     -7998145    690038.51    1.1938685    70.109538    70.109538    140.38449 
     300    72799     303.4332   -51.803254   -8065071.4    65844.097   -7999227.3    690305.88    1.1934061     70.11436     70.11436    140.41957 
     400    72799    302.19004   -190.98747     -8065790    65574.336   -8000215.6    690571.33    1.1929473    70.119082    70.119082    140.45464 
     500    72799    300.70796   -573.57289   -8066299.8    65252.727   -8001047.1    690754.38    1.1926312    70.119619    70.119619    140.48972 
     600    72799    298.35965    181.06446     -8066321    64743.153   -8001577.9    690464.52    1.1931319    70.096155    70.096155     140.5248 
     700    72799    298.86873   -454.90327   -8066472.2    64853.621   -8001618.5    689952.48    1.1940173    70.061415    70.061415    140.55988 
     800    72799    301.19573   -291.70573     -8066730    65358.574   -8001371.4    689756.68    1.1943563    70.042733    70.042733    140.59496 
     900    72799     301.2326    175.96835   -8066898.2    65366.574   -8001531.6    689694.69    1.1944636     70.03085     70.03085    140.63004 
    1000    72799    299.98188    1179.8584   -8067144.6    65095.171   -8002049.5    689362.17    1.1950398    70.005235    70.005235    140.66512 
    1100    72799    300.50931    626.43843     -8067677    65209.621   -8002467.4    689255.52    1.1952247    69.991094    69.991094    140.70019 
    1200    72799    298.88633   -187.36666   -8067560.7     64857.44   -8002703.3    689293.72    1.1951585     69.98431     69.98431    140.73527 
    1300    72799    299.51109    746.19352   -8067618.9    64993.011   -8002625.9    689215.02    1.1952949    69.971594    69.971594    140.77035 
    1400    72799      299.767    329.88176   -8067502.6    65048.543     -8002454    689167.38    1.1953776     69.96046     69.96046    140.80543 
    1500    72799    299.37031    200.04002   -8067430.2    64962.462   -8002467.7    689146.86    1.1954132    69.950706    69.950706    140.84051 
    1600    72799    298.61208   -245.97532   -8067543.9    64797.928     -8002746    689134.27     1.195435    69.941357    69.941357    140.87559 
    1700    72799    300.26852   -417.75922   -8068053.2    65157.372   -8002895.8    689247.97    1.1952378     69.93842     69.93842    140.91067 
    1800    72799    298.17587    48.938609   -8067836.9    64703.272   -8003133.6    689730.04    1.1944024    69.954167    69.954167    140.94574 
    1900    72799    298.93424   -762.36548   -8068112.4    64867.836   -8003244.6    690220.74    1.1935533     69.97034     69.97034    140.98082 
    2000    72799    299.64639    -228.5593   -8067830.8    65022.371   -8002808.4     690667.6     1.192781     69.98428     69.98428     141.0159 
    2100    72799    301.02407    1375.4469   -8067845.1    65321.323   -8002523.8    690622.96    1.1928582    69.973315    69.973315    141.05098 
    2200    72799    299.75651   -748.76037   -8067685.4    65046.267   -8002639.1    690260.58    1.1934844    69.946258    69.946258    141.08606 
    2300    72799    299.74308    630.96199     -8067923    65043.353   -8002879.7    690209.67    1.1935724    69.934985    69.934985    141.12114 
    2400    72799    300.65323   -271.96664   -8068533.9    65240.852     -8003293    690357.82    1.1933163    69.933799    69.933799    141.15622 
    2500    72799    300.20513    1998.4838   -8068461.6    65143.615     -8003318    690543.06    1.1929962    69.934492    69.934492    141.19129 
    2600    72799    299.97369   -1007.7582     -8068214    65093.395   -8003120.6    690834.64    1.1924926    69.940568    69.940568    141.22637 
    2700    72799     300.5692    159.29942   -8068175.8    65222.618   -8002953.2    690517.65    1.1930401    69.915837    69.915837    141.26145 
    2800    72799    300.68573    743.05924   -8068342.9    65247.903     -8003095    690283.54    1.1934447    69.895306    69.895306    141.29653 
    2900    72799    299.37114    1433.5108   -8068613.5    64962.641   -8003650.8    690209.45    1.1935728    69.882881    69.882881    141.33161 
    3000    72799    299.15426   -1226.4365   -8068683.3     64915.58   -8003767.7    690620.21    1.1928629    69.894999    69.894999    141.36669 
    3100    72799    300.47498    108.80219   -8068670.6    65202.173   -8003468.4    690980.14    1.1922415    69.904537    69.904537    141.40177 
    3200    72799    300.41992   -891.35407   -8068278.9    65190.224   -8003088.6    691426.31    1.1914722    69.918431    69.918431    141.43684 
    3300    72799    300.53938   -934.65855   -8068138.4    65216.148   -8002922.3    691763.38    1.1908916      69.9268      69.9268    141.47192 
    3400    72799    300.49622   -473.95839   -8068343.6    65206.781   -8003136.8    691903.32    1.1906508    69.925204    69.925204      141.507 
    3500    72799    300.16424    -733.8056   -8068615.2    65134.743   -8003480.5    691664.88    1.1910612    69.904491    69.904491    141.54208 
    3600    72799    299.06953    886.54747   -8068404.4    64897.194   -8003507.2    691537.99    1.1912798    69.889418    69.889418    141.57716 
    3700    72799     301.2113   -81.790865   -8068649.9    65361.951     -8003288    691750.86    1.1909132    69.891516    69.891516    141.61224 
    3800    72799    299.87075   -122.83057   -8068194.8    65071.055   -8003123.8    691894.22    1.1906664    69.890102    69.890102    141.64732 
    3900    72799    300.63968   -118.96268   -8068237.9    65237.913   -8002999.9    691574.48    1.1912169    69.865301    69.865301    141.68239 
    4000    72799    300.50359    541.44238   -8068532.8     65208.38   -8003324.5    691179.36    1.1918979    69.836696    69.836696    141.71747 
    4100    72799    299.26203     398.1759   -8068674.6    64938.965   -8003735.6    691324.21    1.1916482     69.83537     69.83537    141.75255 
    4200    72799    299.48563   -272.44321     -8068659    64987.486   -8003671.5    691768.27    1.1908832    69.849153    69.849153    141.78763 
    4300    72799    299.17766   -2246.5683   -8068299.3    64920.657   -8003378.7    692480.49    1.1896584    69.876458    69.876458    141.82271 
    4400    72799    300.81555   -949.69391   -8068372.2    65276.075   -8003096.1     692666.9    1.1893382    69.877222    69.877222    141.85779 
    4500    72799    300.77063   -713.39948   -8068301.6    65266.327   -8003035.2    692490.88    1.1896405    69.859705    69.859705    141.89287 
    4600    72799    300.48455   -807.02288   -8068709.3    65204.249   -8003505.1    692620.87    1.1894173    69.857627    69.857627    141.92794 
    4700    72799    299.16018   -1534.9751   -8068763.3    64916.865   -8003846.4    693005.47    1.1887572    69.868386    69.868386    141.96302 
    4800    72799    299.86273    155.42333   -8068884.4    65069.317   -8003815.1    693176.94    1.1884631    69.868398    69.868398     141.9981 
    4900    72799    300.13912    1266.1063   -8068648.8    65129.293   -8003519.5    693064.36    1.1886562    69.854096    69.854096    142.03318 
    5000    72799    300.87811    967.09673   -8068450.2     65289.65   -8003160.5    692931.65    1.1888838    69.838784    69.838784    142.06826 
    5100    72799    299.39485    230.29163   -8067936.2    64967.786   -8002968.4    692810.09    1.1890924    69.824038    69.824038    142.10334 
    5200    72799    300.49985    109.21341   -8068464.1    65207.568   -8003256.5    692900.56    1.1889372     69.81998     69.81998    142.13842 
    5300    72799    299.66691    1260.5796   -8068753.3    65026.823   -8003726.5    692667.09    1.1893379    69.799604    69.799604    142.17349 
    5400    72799    300.21992   -486.84529   -8069029.1    65146.825   -8003882.2    692779.77    1.1891445    69.796671    69.796671    142.20857 
    5500    72799    299.74647    397.88763   -8068814.8    65044.088   -8003770.7    692799.39    1.1891108    69.789053    69.789053    142.24365 
    5600    72799    301.30622    48.108899   -8068754.4    65382.548   -8003371.8    692814.04    1.1890856    69.781186    69.781186    142.27873 
    5700    72799    300.76222   -67.221511   -8068576.2    65264.502   -8003311.7    693043.63    1.1886917    69.784146    69.784146    142.31381 
    5800    72799    300.20811   -708.92638   -8068809.5    65144.263   -8003665.2    693462.82    1.1879732    69.796646    69.796646    142.34889 
    5900    72799     298.3745   -386.52924   -8068745.3    64746.373   -8003998.9    693685.38     1.187592    69.799246    69.799246    142.38397 
    6000    72799     300.6749    692.45617   -8069150.5    65245.553   -8003904.9    693550.66    1.1878227    69.783871    69.783871    142.41904 
    6100    72799     300.2582   -120.92694   -8068929.8    65155.131   -8003774.7    693603.88    1.1877316    69.777956    69.777956    142.45412 
    6200    72799    299.03895    -956.5926   -8068459.8    64890.557   -8003569.2    693739.97    1.1874986    69.776211    69.776211     142.4892 
    6300    72799    301.80093   -95.173557   -8068700.3      65489.9   -8003210.4    693838.68    1.1873296    69.772587    69.772587    142.52428 
    6400    72799     300.6986   -1819.9364   -8068397.4    65250.697   -8003146.7    693961.42    1.1871196    69.770173    69.770173    142.55936 
    6500    72799    299.59855   -41.246651   -8068646.5     65011.99   -8003634.5    693830.31     1.187344       69.755       69.755    142.59444 
    6600    72799    299.58828   -1266.6093   -8068898.6    65009.761   -8003888.9    693656.36    1.1876417    69.737678    69.737678    142.62952 
    6700    72799    300.63257    132.89929   -8069127.7    65236.368   -8003891.4    693291.27    1.1882671    69.710751    69.710751    142.66459 
    6800    72799    301.03102    1057.0777   -8068952.7     65322.83   -8003629.8    693173.23    1.1884695    69.696249    69.696249    142.69967 
    6900    72799    301.98417    167.78951   -8068775.5    65529.661   -8003245.9    693566.65    1.1877953    69.707457    69.707457    142.73475 
    7000    72799    300.01695    -285.4722   -8068304.8     65102.78     -8003202     693804.8    1.1873876    69.710858    69.710858    142.76983 
    7100    72799    299.37993    215.52082   -8068525.9     64964.55   -8003561.3    694042.45     1.186981    69.714232    69.714232    142.80491 
    7200    72799    297.61282    2040.3277   -8068513.7    64581.092   -8003932.6    694080.14    1.1869166    69.707564    69.707564    142.83999 
    7300    72799    300.00685    254.09869   -8068826.2    65100.589   -8003725.6     694204.8    1.1867034    69.705265    69.705265    142.87507 
    7400    72799    300.06951    536.89017   -8068584.6    65114.186   -8003470.4    694094.31    1.1868923    69.691163    69.691163    142.91014 
    7500    72799    300.00678   -2035.3802   -8068398.9    65100.573   -8003298.4    694003.47    1.1870477    69.678052    69.678052    142.94522 
    7600    72799    301.05597   -757.06635   -8068388.4    65328.245   -8003060.1    693710.48    1.1875491    69.654796    69.654796     142.9803 
    7700    72799    299.95494    1243.2991   -8068381.4    65089.324   -8003292.1    692936.07    1.1888762    69.607368    69.607368    143.01538 
    7800    72799    298.74746   -1182.5699   -8068488.9    64827.306   -8003661.6    692476.25    1.1896657    69.575737    69.575737    143.05046 
    7900    72799    298.78633   -175.79948     -8068618    64835.739   -8003782.3    692129.77    1.1902612    69.549802    69.549802    143.08554 
    8000    72799    299.69892   -1141.9625   -8068715.3    65033.771   -8003681.6    692155.37    1.1902172    69.542564    69.542564    143.12062 
    8100    72799    299.81521   -477.07682   -8068386.9    65059.004   -8003327.9    692245.45    1.1900623    69.538568    69.538568    143.15569 
    8200    72799    301.05588     346.6006   -8068364.3    65328.226   -8003036.1    692371.98    1.1898448    69.536403    69.536403    143.19077 
    8300    72799    299.97585   -2333.2139   -8068500.5    65093.863   -8003406.7    693131.78    1.1885406    69.566026    69.566026    143.22585 
    8400    72799    300.51728   -528.40535   -8068774.1    65211.351   -8003562.7    693854.54    1.1873025    69.593765    69.593765    143.26093 
    8500    72799    298.67669   -1745.7779     -8068305    64811.948     -8003493    694417.11    1.1863406     69.61345     69.61345    143.29601 
    8600    72799    300.39925   -1519.2532     -8068418    65185.738   -8003232.3    694928.95    1.1854668    69.630579    69.630579    143.33109 
    8700    72799    301.37423    42.715439   -8068451.5    65397.307   -8003054.2    695004.59    1.1853378    69.625848    69.625848    143.36617 
    8800    72799    300.09998    275.85292   -8068570.1    65120.799   -8003449.3    694987.83    1.1853664    69.616493    69.616493    143.40124 
    8900    72799     298.9279   -725.01651   -8068588.7     64866.46   -8003722.2     694884.9     1.185542    69.602825    69.602825    143.43632 
    9000    72799    300.80437   -779.47659   -8068835.7    65273.649     -8003562    694836.67    1.1856243      69.5919      69.5919     143.4714 
    9100    72799    298.48532   -389.71031     -8068121    64770.421   -8003350.5    694478.68    1.1862354    69.565467    69.565467    143.50648 
    9200    72799    299.87449   -1866.2026   -8067991.6    65071.868   -8002919.7    694718.33    1.1858262    69.568966    69.568966    143.54156 
    9300    72799    300.44018   -714.74052   -8067979.4    65194.622   -8002784.8    694732.27    1.1858025    69.561165    69.561165    143.57664 
    9400    72799    300.48347    441.44485   -8068456.8    65204.016   -8003252.8    694762.82    1.1857503    69.554198    69.554198    143.61172 
    9500    72799    300.11093   -369.57188   -8068607.7    65123.174   -8003484.5    694473.63    1.1862441     69.53123     69.53123    143.64679 
    9600    72799    299.18792    -391.7885   -8068450.6    64922.883   -8003527.7    694058.52    1.1869536     69.50196     69.50196    143.68187 
    9700    72799    300.33284    601.65592   -8068702.2    65171.329   -8003530.9    694095.89    1.1868896    69.495349    69.495349    143.71695 
    9800    72799    298.54951    242.66036   -8068521.6    64784.351   -8003737.2    694735.26    1.1857973    69.518866    69.518866    143.75203 
    9900    72799    300.23093   -1774.9268   -8068978.4    65149.214   -8003829.2    695379.66    1.1846985    69.542615    69.542615    143.78711 
   10000    72799     299.7609   -637.43947   -8068563.5    65047.219   -8003516.3    695700.03    1.1841529    69.550149    69.550149    143.82219 
   10100    72799    300.45406   -1665.4338     -8068301    65197.632   -8003103.4    696063.53    1.1835345    69.559834    69.559834    143.85727 
   10200    72799    300.94038   -413.45639   -8068403.9    65303.162   -8003100.8    695982.63    1.1836721    69.547313    69.547313    143.89234 
   10300    72799    299.62083   -1178.4368     -8068395    65016.824   -8003378.1    695789.19    1.1840012    69.529173    69.529173    143.92742 
   10400    72799    300.27074   -56.601005   -8068610.8    65157.852   -8003452.9    695617.63    1.1842932     69.51213     69.51213     143.9625 
   10500    72799    300.07551     867.6872   -8068587.8    65115.488   -8003472.3    695254.42    1.1849119    69.485515    69.485515    143.99758 
   10600    72799    299.72197   -335.94986     -8068546    65038.772   -8003507.2    695338.88     1.184768    69.481273    69.481273    144.03266 
   10700    72799    300.59314   -604.39981   -8068772.2    65227.812   -8003544.4    695717.23    1.1841237    69.491712    69.491712    144.06774 
   10800    72799     298.0885   -124.61164   -8068337.3    64684.313   -8003652.9    695833.98     1.183925    69.489083    69.489083    144.10282 
   10900    72799    300.49893   -749.84795   -8068701.1    65207.368   -8003493.7     695468.7    1.1845468    69.462388    69.462388    144.13789 
   11000    72799     300.0032   -184.37765   -8068342.1    65099.798   -8003242.3    695204.01    1.1849978    69.440718    69.440718    144.17297 
   11100    72799    300.86653   -746.35648   -8068178.9    65287.137   -8002891.8    695183.68    1.1850324    69.431257    69.431257    144.20805 
   11200    72799    302.24944    168.22556   -8068427.3    65587.224     -8002840     695415.4    1.1846376    69.434383    69.434383    144.24313 
   11300    72799    299.41005    -1495.659   -8068334.8    64971.086   -8003363.7    695855.07    1.1838891    69.447885    69.447885    144.27821 
   11400    72799    298.85231   -248.83256     -8068397    64850.058   -8003546.9    695756.67    1.1840565    69.434534    69.434534    144.31329 
   11500    72799    300.23362   -1074.5571   -8068638.3    65149.797   -8003488.5    696104.66    1.1834646    69.443457    69.443457    144.34837 
   11600    72799    301.55884    -909.5171   -8068761.9    65437.367   -8003324.5    696405.27    1.1829537    69.450012    69.450012    144.38345 
   11700    72799    300.94556    353.50131   -8068625.9    65304.287   -8003321.6    696621.06    1.1825873    69.452335    69.452335    144.41852 
   11800    72799    299.63983   -663.34527   -8068431.9    65020.948   -8003410.9    696874.22    1.1821577    69.456519    69.456519     144.4536 
   11900    72799    300.53086   -657.58136     -8068578    65214.298   -8003363.7    697133.59    1.1817179     69.46101     69.46101    144.48868 
   12000    72799    300.78511   -1197.6132   -8068532.9    65269.469   -8003263.5    697219.17    1.1815728    69.456842    69.456842    144.52376 
   12100    72799    300.53121    1340.3584   -8068424.4    65214.374     -8003210    696759.53    1.1823523    69.425519    69.425519    144.55884 
   12200    72799     300.4521     2199.842   -8068389.7    65197.207   -8003192.5    696189.08    1.1833211    69.388675    69.388675    144.59392 
   12300    72799    298.96612    220.75051   -8068277.4    64874.755   -8003402.7    696156.68    1.1833762    69.378645    69.378645      144.629 
   12400    72799    299.30918    481.99027   -8068631.8    64949.196   -8003682.6    696106.77     1.183461    69.367746    69.367746    144.66407 
   12500    72799    299.53817    547.29098   -8068652.3    64998.887   -8003653.4    696221.46    1.1832661    69.365051    69.365051    144.69915 
   12600    72799    299.71351   -386.66696   -8068163.1    65036.936   -8003126.2    696265.64     1.183191    69.358845    69.358845    144.73423 
   12700    72799    300.48038   -835.92833   -8068229.2    65203.343   -8003025.8    696209.16     1.183287    69.347629    69.347629    144.76931 
   12800    72799     300.2008   -480.95893   -8068425.6    65142.675   -8003282.9    696175.74    1.1833438    69.337564    69.337564    144.80439 
   12900    72799    300.15293   -178.26119   -8068535.3    65132.289     -8003403    696572.07    1.1826705    69.348899    69.348899    144.83947 
   13000    72799    300.63586   -518.05297     -8068614    65237.083     -8003377    697308.46    1.1814215    69.377145    69.377145    144.87455 
   13100    72799    300.23927   -679.26263   -8068303.3    65151.024   -8003152.2    697768.51    1.1806426    69.391627    69.391627    144.90962 
   13200    72799    300.78107   -667.52379   -8067992.3    65268.593   -8002723.7    698121.62    1.1800454    69.400783    69.400783     144.9447 
   13300    72799    301.40732   -144.03293   -8068073.1    65404.487   -8002668.6    698226.91    1.1798675    69.397619    69.397619    144.97978 
   13400    72799    299.66933   -640.00679   -8068109.2    65027.348   -8003081.8    698194.18    1.1799228    69.387599    69.387599    145.01486 
   13500    72799    299.81829   -97.174073   -8068278.7    65059.673     -8003219    698002.51    1.1802468    69.369684    69.369684    145.04994 
   13600    72799    299.65614   -1864.6151   -8068335.1    65024.487   -8003310.6    698004.86    1.1802428    69.361415    69.361415    145.08502 
   13700    72799    300.30343   -995.12725   -8068478.1    65164.946   -8003313.2    698013.94    1.1802275    69.353482    69.353482     145.1201 
   13800    72799    300.37499    64.766314   -8068533.8    65180.475   -8003353.4    697905.28    1.1804112    69.339704    69.339704    145.15517 
   13900    72799    300.52782    1385.7632   -8068554.6    65213.639   -8003340.9    697672.81    1.1808045    69.319779    69.319779    145.19025 
   14000    72799    301.53109   -2406.6949   -8068768.4    65431.346     -8003337    698086.44    1.1801049     69.33195     69.33195    145.22533 
   14100    72799    300.01482   -99.826021   -8068676.2     65102.32   -8003573.9    697998.74    1.1802532    69.319223    69.319223    145.26041 
   14200    72799    298.78489   -954.95487   -8068539.3    64835.427   -8003703.9    698008.57    1.1802365    69.311343    69.311343    145.29549 
   14300    72799    298.99277   -572.49147   -8068375.1    64880.538   -8003494.6    698185.42    1.1799376    69.311756    69.311756    145.33057 
   14400    72799    299.82572   -279.45267   -8068046.5    65061.286   -8002985.2    698280.06    1.1797777     69.30809     69.30809    145.36565 
   14500    72799    299.76757   -687.28684   -8067898.1    65048.666   -8002849.4    698411.56    1.1795555    69.306254    69.306254    145.40072 
   14600    72799    300.51452    540.91079   -8068201.8    65210.752   -8002991.1    698580.29    1.1792706    69.306265    69.306265     145.4358 
   14700    72799    299.89502    -1044.887   -8068515.1    65076.322   -8003438.8    699028.69    1.1785142    69.320146    69.320146    145.47088 
   14800    72799    298.89905   -605.10049   -8068366.9      64860.2   -8003506.7    699185.58    1.1782497    69.319567    69.319567    145.50596 
   14900    72799    299.37558    1075.2865     -8068286    64963.605   -8003322.4    698993.22     1.178574    69.301677    69.301677    145.54104 
   15000    72799     301.0057    441.76448   -8068314.5    65317.338   -8002997.2    698969.43    1.1786141    69.292148    69.292148    145.57612 
   15100    72799    300.81082   -977.64662   -8068056.9    65275.049   -8002781.8    699296.48    1.1780629    69.300008    69.300008     145.6112 
   15200    72799    300.48699   -853.79314   -8067898.5    65204.779   -8002693.7    699470.98     1.177769    69.300308    69.300308    145.64627 
   15300    72799    299.84923   -694.26944   -8068026.5    65066.386   -8002960.1    699604.67    1.1775439    69.298585    69.298585    145.68135 
   15400    72799    299.08728    6.4178288   -8068230.2    64901.045   -8003329.2    699534.22    1.1776625    69.286755    69.286755    145.71643 
   15500    72799    299.52671    1017.3773   -8068429.9    64996.401   -8003433.5    699001.58    1.1785599    69.252036    69.252036    145.75151 
   15600    72799    300.03362    9.5506559   -8068432.9    65106.398   -8003326.5    698468.73     1.179459    69.217307    69.217307    145.78659 
   15700    72799    300.04867   -628.49884   -8068124.5    65109.664   -8003014.8    698363.53    1.1796367    69.203769    69.203769    145.82167 
   15800    72799    301.12567   -25.269989   -8068100.8    65343.369   -8002757.4    698533.18    1.1793502    69.203851    69.203851    145.85675 
   15900    72799    300.66111    164.19448   -8068408.5    65242.563   -8003165.9    699033.08    1.1785068    69.220286    69.220286    145.89182 
   16000    72799     299.8428   -305.65429   -8068585.8    65064.991   -8003520.8    699575.54     1.177593    69.238815    69.238815     145.9269 
   16100    72799    299.50459    1117.8406   -8068591.5      64991.6   -8003599.9    700048.56    1.1767972    69.253896    69.253896    145.96198 
   16200    72799    298.94884    1693.7685   -8068297.8    64871.004   -8003426.8    700591.02    1.1758861    69.272399    69.272399    145.99706 
   16300    72799    300.23263    1105.6483   -8068171.4    65149.582   -8003021.8    701134.47    1.1749746    69.290938    69.290938    146.03214 
   16400    72799     299.8735   -874.39253     -8067981    65071.653   -8002909.4    701215.21    1.1748394    69.286606    69.286606    146.06722 
   16500    72799    299.07199   -2162.0871   -8067901.2    64897.727   -8003003.5    701072.38    1.1750787    69.271232    69.271232     146.1023 
   16600    72799    298.48827   -1634.0826   -8068389.1    64771.062     -8003618     700444.7    1.1761317    69.231904    69.231904    146.13737 
   16700    72799    297.98518   -2167.9872   -8068282.5    64661.894   -8003620.6    699914.66    1.1770224      69.1974      69.1974    146.17245 
   16800    72799    299.64117    -1533.339   -8068232.3    65021.238     -8003211    699857.84     1.177118     69.18629     69.18629    146.20753 
   16900    72799    300.19606   -198.58479   -8068160.7    65141.647   -8003019.1    699935.65    1.1769871    69.181837    69.181837    146.24261 
   17000    72799    299.81908   -1434.7205     -8068210    65059.843   -8003150.2    699942.57    1.1769755    69.173884    69.173884    146.27769 
   17100    72799    299.19765    51.922527   -8068302.7    64924.996   -8003377.7     699684.4    1.1774097    69.152834    69.152834    146.31277 
   17200    72799    298.88882   -1178.7698   -8068733.5    64857.981   -8003875.5    699689.79    1.1774007    69.144812    69.144812    146.34785 
   17300    72799    297.79338   -1387.7368   -8068603.8    64620.274   -8003983.5    700004.55    1.1768712    69.152076    69.152076    146.38292 
   17400    72799    299.17209   -645.21322     -8068542    64919.448   -8003622.5    700054.77    1.1767868    69.146272    69.146272      146.418 
   17500    72799    299.87712   -2174.5379   -8068417.8    65072.438   -8003345.4    699757.66    1.1772865    69.123318    69.123318    146.45308 
   17600    72799    299.93723   -434.45949   -8068217.5    65085.482     -8003132    699437.56    1.1778253    69.099231    69.099231    146.48816 
   17700    72799    299.57839   -46.099177   -8067945.9    65007.614   -8002938.2    699372.96     1.177934    69.087768    69.087768    146.52324 
   17800    72799    300.16741   -200.00354   -8067952.8     65135.43   -8002817.4    699450.69    1.1778032    69.083338    69.083338    146.55832 
   17900    72799    299.98161   -1147.0983   -8068097.1    65095.111     -8003002    699751.12    1.1772975    69.089906    69.089906     146.5934 
   18000    72799    299.52862   -1278.8611   -8068297.6    64996.816   -8003300.8       700054    1.1767881    69.096589    69.096589    146.62847 
   18100    72799    299.49286   -458.58242   -8068398.2    64989.056   -8003409.2    699949.33    1.1769641    69.083161    69.083161    146.66355 
   18200    72799     299.2691    300.00656   -8068252.4    64940.499   -8003311.9    700083.49    1.1767385     69.08152     69.08152    146.69863 
   18300    72799    300.43672   -1384.8991   -8068310.5     65193.87   -8003116.6    700532.04    1.1759851    69.095387    69.095387    146.73371 
   18400    72799    301.51094    -682.9892   -8068469.3    65426.972   -8003042.3    700929.07     1.175319    69.106704    69.106704    146.76879 
   18500    72799     300.5616   -702.79711   -8068428.9    65220.968   -8003207.9    701198.68     1.174867    69.111735    69.111735    146.80387 
   18600    72799    298.73782   -1011.1649   -8068353.6    64825.214   -8003528.4    701142.23    1.1749616    69.100698    69.100698    146.83895 
   18700    72799    298.92993   -1277.1893   -8068420.4    64866.901   -8003553.5    701029.56    1.1751505    69.086894    69.086894    146.87402 
   18800    72799    299.91282   -1277.9659   -8068029.2    65080.185   -8002949.1    700705.91    1.1756933    69.062698    69.062698     146.9091 
   18900    72799    301.02419   -486.25212   -8068103.6    65321.349   -8002782.2    700721.38    1.1756673    69.055216    69.055216    146.94418 
   19000    72799    300.10415   -897.41524   -8068103.5    65121.703   -8002981.8    701021.28    1.1751644    69.061749    69.061749    146.97926 
   19100    72799     299.5825   -994.79152   -8068306.4    65008.507   -8003297.9    701596.39    1.1742011    69.081829    69.081829    147.01434 
   19200    72799     298.3638   -3035.0435   -8068134.4    64744.051   -8003390.4    701850.36    1.1737762    69.086089    69.086089    147.04942 
   19300    72799    300.13625    -436.3319   -8068159.1     65128.67   -8003030.4    701691.49    1.1740419    69.070032    69.070032     147.0845 
   19400    72799    301.18789   -283.08302   -8068179.9    65356.871     -8002823    701317.48     1.174668    69.043389    69.043389    147.11957 
   19500    72799    300.07517   -446.08222   -8068029.9    65115.414   -8002914.5    701151.08    1.1749468    69.026969    69.026969    147.15465 
   19600    72799    299.09693   -2763.8782   -8068045.8    64903.139   -8003142.7    701780.77    1.1738926    69.049729    69.049729    147.18973 
   19700    72799    299.29236    666.47288   -8068197.2    64945.547   -8003251.7     702688.3    1.1723765    69.086129    69.086129    147.22481 
   19800    72799    298.58515    700.15286   -8067874.5    64792.084   -8003082.4    703467.55    1.1710778    69.116191    69.116191    147.25989 
   19900    72799     301.4252   -1511.7955   -8068015.8    65408.368   -8002607.5    703602.47    1.1708532    69.114588    69.114588    147.29497 
   20000    72799    300.01747   -361.39599   -8067682.2    65102.893   -8002579.3    703013.14    1.1718347    69.077412    69.077412    147.33005 
   20100    72799    300.16724   -1243.3653   -8067857.9    65135.394   -8002722.5    702546.82    1.1726126    69.046279    69.046279    147.36512 
   20200    72799    299.92318   -934.38078   -8068142.5    65082.432     -8003060    702440.61    1.1727899    69.032844    69.032844     147.4002 
   20300    72799    299.22077   -1124.6024   -8068070.4    64930.011   -8003140.4    702740.59    1.1722892    69.039368    69.039368    147.43528 
   20400    72799    299.12445   -2396.7316   -8067911.8    64909.111   -8003002.7    702955.16    1.1719314    69.041694    69.041694    147.47036 
   20500    72799    299.93145   -1912.2875   -8067826.7    65084.228   -8002742.4    702691.01    1.1723719    69.020513    69.020513    147.50544 
   20600    72799    300.19488    -2284.399   -8067826.7    65141.391   -8002685.3    702397.21    1.1728623    68.997879    68.997879    147.54052 
   20700    72799    298.82116    42.155196   -8067965.8    64843.298   -8003122.5    702382.81    1.1728864    68.988971    68.988971     147.5756 
   20800    72799    298.95483    65.838863   -8068186.7    64872.304   -8003314.4    703010.17    1.1718397    69.011572    69.011572    147.61067 
   20900    72799    300.33387   -385.72178   -8068208.1    65171.552   -8003036.6    703485.69    1.1710476    69.026707    69.026707    147.64575 
   21000    72799    300.38216   -1030.1473   -8067947.2    65182.031   -8002765.2    703319.37    1.1713245    69.010349    69.010349    147.68083 
   21100    72799    299.51073   -194.72655   -8067708.9    64992.933     -8002716    703057.82    1.1717603    68.989323    68.989323    147.71591 
   21200    72799    300.88808    796.99488   -8068013.9    65291.814     -8002722    702975.31    1.1718978    68.977085    68.977085    147.75099 
   21300    72799    300.80393   -2383.9435   -8068242.9    65273.552   -8002969.4    703235.18    1.1714647    68.981645    68.981645    147.78607 
   21400    72799    299.13871   -185.52869   -8067931.5    64912.205   -8003019.3    703164.26    1.1715829    68.969982    68.969982    147.82115 
   21500    72799    300.32514   -428.31338   -8068026.6    65169.658   -8002856.9    703049.22    1.1717746    68.956158    68.956158    147.85622 
   21600    72799    301.25969    1222.5483   -8068190.9    65372.452   -8002818.4    703121.03    1.1716549    68.951501    68.951501     147.8913 
   21700    72799    298.69482   -1646.2507   -8068062.6    64815.883   -8003246.7    703732.04    1.1706377    68.973274    68.973274    147.92638 
   21800    72799    299.22483    470.29147   -8068209.3    64930.893   -8003278.4    703908.35    1.1703444    68.973737    68.973737    147.96146 
   21900    72799    298.43814   -852.31093   -8067869.4    64760.184   -8003109.2    704078.09    1.1700623    68.973877    68.973877    147.99654 
   22000    72799    300.10979   -1250.9921     -8067965    65122.927   -8002842.1    703986.27    1.1702149    68.961207    68.961207    148.03162 
   22100    72799    301.26801   -1470.8054   -8068089.2    65374.258   -8002714.9    703697.19    1.1706956    68.938879    68.938879     148.0667 
   22200    72799    299.72971    563.25235   -8067894.6     65040.45   -8002854.2    703462.71    1.1710858    68.919229    68.919229    148.10177 
   22300    72799     298.4758   -933.91933   -8068186.5    64768.357   -8003418.1    703760.15    1.1705909    68.925635    68.925635    148.13685 
   22400    72799    298.48598    136.54941   -8068155.1    64770.566   -8003384.6    704058.07    1.1700956    68.932062    68.932062    148.17193 
   22500    72799    298.66405   -1451.8806   -8067844.1    64809.206   -8003034.9    704045.65    1.1701162    68.923296    68.923296    148.20701 
   22600    72799    299.41979     359.6924   -8067689.2    64973.198     -8002716    703968.21    1.1702449     68.91135     68.91135    148.24209 
   22700    72799    299.92991   -1240.1678   -8067609.6    65083.893   -8002525.7    703947.33    1.1702796    68.902177    68.902177    148.27717 
   22800    72799     300.0066    -281.8429   -8067903.2    65100.535   -8002802.6    703861.26    1.1704227    68.889816    68.889816    148.31225 
   22900    72799    299.76834   -876.76635     -8068183    65048.833   -8003134.2    703758.82    1.1705931    68.876658    68.876658    148.34732 
   23000    72799    299.68201    767.50824   -8068157.5      65030.1   -8003127.4     703782.5    1.1705537    68.869674    68.869674     148.3824 
   23100    72799    299.80997   -586.23365   -8068023.9    65057.867   -8002966.1    703942.17    1.1702882    68.869347    68.869347    148.41748 
   23200    72799    300.84236   -298.82481   -8067924.7    65281.894   -8002642.8    703719.51    1.1706585    68.850318    68.850318    148.45256 
   23300    72799    301.61494   -10.847529   -8067680.4    65449.541   -8002230.9    703690.39    1.1707069     68.84076     68.84076    148.48764 
   23400    72799    301.46957    1645.3249   -8067730.5    65417.995   -8002312.5    703628.33    1.1708102    68.829595    68.829595    148.52272 
   23500    72799    300.74302   -271.30268   -8067812.3    65260.336   -8002551.9    703573.14     1.170902    68.818769    68.818769     148.5578 
   23600    72799    299.31911   -313.13927     -8067687    64951.352   -8002735.6    703687.25    1.1707122    68.816225    68.816225    148.59287 
   23700    72799    299.11098    391.53102   -8067706.5    64906.189   -8002800.4    704180.78    1.1698917    68.832229    68.832229    148.62795 
   23800    72799    298.20814   -1067.4345   -8067627.4    64710.275   -8002917.1    704647.12    1.1691174    68.846893    68.846893    148.66303 
   23900    72799    298.88427    336.97822   -8068031.4    64856.993   -8003174.4    705028.06    1.1684857    68.857377    68.857377    148.69811 
   24000    72799    298.79651   -1155.3721   -8068048.4     64837.95   -8003210.5    705300.52    1.1680343    68.862559    68.862559    148.73319 
   24100    72799    300.19892    314.17636   -8067892.4    65142.268   -8002750.1    704984.65    1.1685577     68.83902     68.83902    148.76827 
   24200    72799    299.39357   -1701.5209   -8067481.1    64967.509   -8002513.6     705157.3    1.1682716    68.839333    68.839333    148.80335 
   24300    72799    300.70298    -526.6726   -8067894.5    65251.647   -8002642.9     705421.1    1.1678347    68.844094    68.844094    148.83843 
   24400    72799    298.58364   -3474.8862   -8067782.7    64791.756   -8002990.9    705609.86    1.1675223    68.845192    68.845192     148.8735 
   24500    72799    299.43758   -343.66044   -8067930.1    64977.059   -8002953.1    705604.76    1.1675307    68.836834    68.836834    148.90858 
   24600    72799    299.17718   -826.72663   -8067709.9    64920.553   -8002789.4    705407.59     1.167857     68.81911     68.81911    148.94366 
   24700    72799    301.09056    4.0915642   -8067917.4    65335.752   -8002581.6    705550.49    1.1676205    68.817977    68.817977    148.97874 
   24800    72799    300.99534   -1256.8815   -8067590.6    65315.089   -8002275.5    705873.89    1.1670856    68.825645    68.825645    149.01382 
   24900    72799    302.25963    -1308.387   -8067524.5    65589.437   -8001935.1    706179.03    1.1665813    68.832418    68.832418     149.0489 
   25000    72799     300.1551   -1408.2431     -8067534    65132.759   -8002401.2     706172.1    1.1665927    68.823982    68.823982    149.08398 
   25100    72799    300.74165   -522.25421     -8067972    65260.039     -8002712    706155.71    1.1666198    68.815088    68.815088    149.11905 
   25200    72799    299.96444   -1194.0816   -8067993.4    65091.387     -8002902    706612.67    1.1658653    68.829254    68.829254    149.15413 
   25300    72799    299.94439   -1691.4828   -8068092.2    65087.036   -8003005.1    706540.25    1.1659848    68.817635    68.817635    149.18921 
   25400    72799     299.8678   -1158.8219     -8067933    65070.417   -8002862.5    706677.19    1.1657589    68.816214    68.816214    149.22429 
   25500    72799    301.82114    -69.84118     -8067918    65494.285   -8002423.7    706966.51    1.1652818    68.822211    68.822211    149.25937 
   25600    72799    301.04627    400.06807   -8067728.8     65326.14   -8002402.6    706809.98    1.1655399    68.806507    68.806507    149.29445 
   25700    72799    299.16921   -1568.5551   -8067623.2    64918.824   -8002704.4    706239.35    1.1664816    68.770647    68.770647    149.32953 
   25800    72799    298.59617   -414.62084   -8067943.5    64794.476     -8003149    705947.97    1.1669631    68.748385    68.748385     149.3646 
   25900    72799    297.63762   -173.33854   -8068036.7    64586.474   -8003450.2    706076.72    1.1667503    68.746582    68.746582    149.39968 
   26000    72799    299.14685   -154.71469   -8068121.4    64913.973   -8003207.4    706480.58    1.1660833    68.758168    68.758168    149.43476 
   26100    72799     298.6722   -875.64664   -8067731.4    64810.974   -8002920.4     706649.1    1.1658052    68.758298    68.758298    149.46984 
   26200    72799    300.36975   -201.42274   -8067818.6    65179.338   -8002639.3    706925.15      1.16535    68.763659    68.763659    149.50492 
   26300    72799     299.3108    266.42207   -8067497.7     64949.55   -8002548.2    707007.64     1.165214    68.759605    68.759605       149.54 
   26400    72799    299.94875   -827.56187     -8067701    65087.982     -8002613    706957.64    1.1652964     68.74911     68.74911    149.57508 
   26500    72799    298.12198   -1300.7387   -8067813.2    64691.578   -8003121.6    706969.93    1.1652762    68.741647    68.741647    149.61015 
   26600    72799     299.6246   -1365.4594   -8068169.7    65017.642   -8003152.1    706938.16    1.1653285    68.732046    68.732046    149.64523 
   26700    72799    300.69681   -1485.6255   -8068114.2    65250.309   -8002863.9    706887.24    1.1654125    68.721516    68.721516    149.68031 
   26800    72799    299.50772   -1807.1595   -8067687.2     64992.28   -8002694.9    706680.83    1.1657529    68.703432    68.703432    149.71539 
   26900    72799    300.39768   -2094.7714     -8067833    65185.397   -8002647.6     706746.1    1.1656452    68.698557    68.698557    149.75047 
   27000    72799    299.39032   -3282.6846   -8067769.1    64966.804   -8002802.3    707152.48    1.1649754    68.710258    68.710258    149.78555 
   27100    72799    299.02183   -474.81347   -8067895.5    64886.843   -8003008.6    707217.23    1.1648687    68.705359    68.705359    149.82063 
   27200    72799    299.28254    -869.1429   -8067944.4    64943.417     -8003001    707371.27     1.164615    68.704798    68.704798     149.8557 
   27300    72799    298.91483    343.75741   -8067648.5    64863.625   -8002784.9    707442.63    1.1644976    68.700224    68.700224    149.89078 
   27400    72799     301.9862      88.0665   -8067896.5    65530.103   -8002366.4    707361.31    1.1646315    68.688238    68.688238    149.92586 
   27500    72799    300.92703   -84.504997   -8067731.2    65300.265   -8002430.9    707241.14    1.1648293     68.67437     68.67437    149.96094 
   27600    72799    300.33697   -1165.9488   -8067911.2    65172.224     -8002739    707249.43    1.1648157    68.666741    68.666741    149.99602 
   27700    72799    300.00237   -685.84766   -8067910.6    65099.617   -8002810.9    707145.98    1.1649861    68.653692    68.653692     150.0311 
   27800    72799    300.06456   -634.94354   -8067891.5    65113.112   -8002778.4    707243.79     1.164825    68.650415    68.650415    150.06618 
   27900    72799    299.13382    -219.9469   -8067689.6    64911.145   -8002778.5    707223.95    1.1648576    68.641429    68.641429    150.10125 
   28000    72799    299.56192   -798.36539   -8067681.1     65004.04   -8002677.1    707381.93    1.1645975    68.641076    68.641076    150.13633 
   28100    72799    300.10034    -1183.203   -8067552.5    65120.877   -8002431.6    707656.13    1.1641462    68.646359    68.646359    150.17141 
   28200    72799    300.49096    67.544848   -8067604.5     65205.64   -8002398.8    707733.46     1.164019    68.642093    68.642093    150.20649 
   28300    72799    299.40654    71.920349   -8067742.6    64970.324   -8002772.3    707613.64    1.1642161    68.628269    68.628269    150.24157 
   28400    72799    298.94928   -226.80457   -8067823.3    64871.099   -8002952.2    707700.81    1.1640727    68.624485    68.624485    150.27665 
   28500    72799    298.96287   -428.18708   -8067694.4    64874.049   -8002820.3       707111    1.1650437    68.587878    68.587878    150.31173 
   28600    72799    301.01673   -1211.4646   -8067709.3    65319.731   -8002389.6    706834.76     1.165499    68.566479    68.566479     150.3468 
   28700    72799    301.21294    142.77384   -8067444.5    65362.306   -8002082.2    706590.84    1.1659014    68.546651    68.546651    150.38188 
   28800    72799    301.14787   -865.22956     -8067682    65348.186   -8002333.8    706869.85    1.1654412    68.552188    68.552188    150.41696 
   28900    72799    299.94051   -1228.5604   -8067819.9    65086.193   -8002733.7    707016.89    1.1651988    68.551325    68.551325    150.45204 
   29000    72799    300.79555   -773.68813   -8068047.1    65271.736   -8002775.4    707330.46    1.1646822    68.558533    68.558533    150.48712 
   29100    72799    300.83898   -1806.8084   -8068089.5    65281.159   -8002808.3    707417.78    1.1645385    68.554775    68.554775     150.5222 
   29200    72799    299.75299   -1578.1691   -8067930.2    65045.503   -8002884.7    707712.37    1.1640537    68.561059    68.561059    150.55728 
   29300    72799     299.5778   -1113.8021     -8067825    65007.487   -8002817.5    708248.15    1.1631731    68.579018    68.579018    150.59235 
   29400    72799    301.05452   -1160.0697   -8067747.3    65327.931   -8002419.4    708402.74    1.1629193    68.578515    68.578515    150.62743 
   29500    72799    300.40133    1256.5394     -8067517    65186.191   -8002330.8    708406.41    1.1629133    68.570709    68.570709    150.66251 
   29600    72799    299.46598   -1805.1855   -8067633.3    64983.222   -8002650.1    708721.67     1.162396    68.577982    68.577982    150.69759 
   29700    72799    299.24827    820.75757   -8067935.3     64935.98   -8002999.4    709129.19     1.161728    68.589713    68.589713    150.73267 
   29800    72799    298.66897   -934.51047     -8067677    64810.273   -8002866.7    709256.95    1.1615187    68.587911    68.587911    150.76775 
   29900    72799    299.52956   -1002.9437   -8067600.1    64997.019   -8002603.1    709161.79    1.1616746    68.575333    68.575333    150.80283 
   30000    72799    298.84956   -716.82707   -8067341.3    64849.461   -8002491.8    709058.28    1.1618442    68.562354    68.562354     150.8379 
   30100    72799    299.95941   -1870.1906   -8067506.3    65090.295     -8002416    708950.93    1.1620201    68.549194    68.549194    150.87298 
   30200    72799     301.3473    121.33353   -8067686.5    65391.463   -8002295.1    708750.05    1.1623494    68.531515    68.531515    150.90806 
   30300    72799    300.52685   -1337.6762   -8067708.2    65213.427   -8002494.8    708355.37    1.1629971    68.504469    68.504469    150.94314 
   30400    72799    298.66513   -645.36879   -8067574.3     64809.44   -8002764.9     708362.5    1.1629854    68.496855    68.496855    150.97822 
   30500    72799    300.77988   -1107.2826   -8067975.3    65268.334     -8002707    708511.27    1.1627412    68.496091    68.496091     151.0133 
   30600    72799    301.23929    294.21641     -8067705    65368.025   -8002336.9    708342.37    1.1630184    68.479973    68.479973    151.04838 
   30700    72799    302.07688    306.73791   -8067634.9    65549.779   -8002085.1     708580.6    1.1626274    68.483536    68.483536    151.08345 
   30800    72799     300.2107   -2249.7284     -8067523    65144.824   -8002378.2    709113.94     1.161753    68.501352    68.501352    151.11853 
   30900    72799    300.89504   -1011.1804   -8067926.5    65293.323   -8002633.1    708999.35    1.1619407    68.487869    68.487869    151.15361 
   31000    72799    300.29353   -1933.5086   -8067834.2    65162.797   -8002671.4    708666.13    1.1624871    68.463829    68.463829    151.18869 
   31100    72799    300.85112   -285.30269   -8067858.3    65283.793   -8002574.5     708666.8     1.162486     68.45592     68.45592    151.22377 
   31200    72799    300.61014   -1595.8762   -8067762.5    65231.501     -8002531    708915.08    1.1620788    68.459972    68.459972    151.25885 
   31300    72799    300.26931   -1879.8479   -8067675.3    65157.543   -8002517.8    709409.94    1.1612682    68.475922    68.475922    151.29393 
   31400    72799    300.12192   -1421.3085   -8067827.4    65125.559   -8002701.9    709558.16    1.1610257    68.475137    68.475137      151.329 
   31500    72799    299.39397   -336.48288   -8067899.8    64967.597   -8002932.2    709310.64    1.1614308    68.455259    68.455259    151.36408 
   31600    72799    300.24515   -1527.9764   -8068143.3    65152.299     -8002991    709372.39    1.1613297    68.450308    68.450308    151.39916 
   31700    72799     299.3689    -1129.246   -8067881.2    64962.155     -8002919    709636.78     1.160897    68.455133    68.455133    151.43424 
   31800    72799     300.3818   -2046.3885   -8067737.1    65181.952   -8002555.2    709933.21    1.1604123      68.4615      68.4615    151.46932 
   31900    72799    299.53372     -1023.22   -8067318.8    64997.922   -8002320.9    709681.88    1.1608232    68.441456    68.441456     151.5044 
   32000    72799     300.8137   -1238.2794   -8067607.7    65275.674   -8002332.1    709542.59    1.1610511    68.426818    68.426818    151.53948 
   32100    72799    298.73019   -1277.7254   -8067532.3    64823.557   -8002708.7    709552.22    1.1610354    68.419364    68.419364    151.57455 
   32200    72799    300.04918   -648.17003   -8068123.3    65109.775   -8003013.5    709393.81    1.1612946    68.403811    68.403811    151.60963 
   32300    72799    299.65686   -856.20291   -8068077.5    65024.643   -8003052.9    709331.53    1.1613966    68.392896    68.392896    151.64471 
   32400    72799    300.71635   -1099.3607   -8067855.5    65254.548   -8002600.9    709623.43    1.1609189    68.399057    68.399057    151.67979 
   32500    72799    301.64769    95.277037   -8067750.7    65456.647   -8002294.1    709705.13    1.1607852    68.395086    68.395086    151.71487 
   32600    72799    300.00478   -1909.3923   -8067717.6    65100.141   -8002617.5    709761.64    1.1606928    68.389903    68.389903    151.74995 
   32700    72799    298.33138    740.47401   -8067615.9    64737.018   -8002878.9    709521.05    1.1610864    68.370409    68.370409    151.78503 
   32800    72799    300.23241   -402.66547   -8067889.4    65149.536   -8002739.9    709480.81    1.1611522    68.360572    68.360572     151.8201 
   32900    72799    298.99316   -1097.3201   -8067430.8    64880.622   -8002550.2    709196.13    1.1616183     68.33896     68.33896    151.85518 
   33000    72799    300.61567   -179.04027   -8067554.5    65232.702   -8002321.8    709395.25    1.1612923    68.340661    68.340661    151.89026 
   33100    72799    300.75001   -123.64644   -8067394.8    65261.852   -8002132.9    709489.96    1.1611373    68.337332    68.337332    151.92534 
   33200    72799    300.06798   -894.41597   -8067584.7    65113.855   -8002470.9     709539.3    1.1610565     68.33182     68.33182    151.96042 
   33300    72799    299.65808      520.532     -8067800    65024.906   -8002775.1    709554.96    1.1610309    68.324688    68.324688     151.9955 
   33400    72799    299.72316    400.42707   -8067651.2    65039.031   -8002612.2    710050.08    1.1602213    68.340636    68.340636    152.03058 
   33500    72799    299.18816   -83.700258   -8067313.1    64922.936   -8002390.1    710400.03    1.1596498    68.349591    68.349591    152.06565 
   33600    72799     301.1812   -127.89582   -8067594.2     65355.42   -8002238.8    710409.56    1.1596342    68.342167    68.342167    152.10073 
   33700    72799    300.37406   -660.26298   -8067685.1    65180.273   -8002504.8    710157.18    1.1600463    68.322148    68.322148    152.13581 
   33800    72799    300.54078    -207.2297   -8068063.1    65216.451   -8002846.7    710114.01    1.1601168    68.312196    68.312196    152.17089 
   33900    72799    298.19166     -1045.37   -8067630.5    64706.698   -8002923.8    710815.97    1.1589712    68.338076    68.338076    152.20597 
   34000    72799     299.7943    79.522516   -8067669.1    65054.467   -8002614.7    711232.02    1.1582932    68.350197    68.350197    152.24105 
   34100    72799    302.46547   -103.69701   -8067880.7    65634.103   -8002246.6    711661.08    1.1575949    68.362935    68.362935    152.27613 
   34200    72799    300.01196    -18.85394   -8067456.4    65101.699   -8002354.7    711510.85    1.1578393    68.347847    68.347847     152.3112 
   34300    72799    300.33925    694.09233   -8067621.4    65172.719   -8002448.7    711357.44     1.158089     68.33261     68.33261    152.34628 
   34400    72799    301.10537   -1382.5729   -8067876.4    65338.965   -8002537.4    711257.34     1.158252    68.319937    68.319937    152.38136 
   34500    72799    299.90186   -416.60293   -8067725.2    65077.808   -8002647.4    711162.72    1.1584061    68.307531    68.307531    152.41644 
   34600    72799    299.60508   -289.67483     -8067634    65013.407   -8002620.6    711383.08    1.1580473    68.310252    68.310252    152.45152 
   34700    72799    300.48224   -812.09322   -8067689.5    65203.749   -8002485.8    711168.44    1.1583968     68.29209     68.29209     152.4866 
   34800    72799    300.72708   -2520.9963   -8067512.6    65256.877   -8002255.7     710919.1    1.1588031    68.272264    68.272264    152.52168 
   34900    72799    300.81265    152.44019   -8067611.8    65275.446   -8002336.4    710666.29    1.1592153    68.252276    68.252276    152.55675 
   35000    72799    299.60525   -2122.9821   -8067715.7    65013.443   -8002702.2    711316.05    1.1581564    68.275621    68.275621    152.59183 
   35100    72799    299.47862    162.08379   -8067894.2    64985.964   -8002908.2     711774.7    1.1574101     68.28978     68.28978    152.62691 
   35200    72799    298.72039   -1473.1327   -8067653.1    64821.432   -8002831.7    712219.95    1.1566865    68.303287    68.303287    152.66199 
   35300    72799    301.45991   -1073.2826   -8067619.6    65415.898   -8002203.7    712333.74    1.1565018    68.300897    68.300897    152.69707 
   35400    72799    300.49471   -1378.8454   -8067284.4    65206.453   -8002077.9     712339.8    1.1564919    68.293344    68.293344    152.73215 
   35500    72799      299.443   -894.45959   -8067229.4    64978.235   -8002251.1    712235.86    1.1566607     68.28052     68.28052    152.76723 
   35600    72799    300.13989   -1174.4608     -8067780     65129.46   -8002650.5    712390.16    1.1564102    68.280077    68.280077     152.8023 
   35700    72799     299.8024   -737.70613   -8067746.3    65056.224   -8002690.1    712373.06    1.1564379    68.271422    68.271422    152.83738 
   35800    72799    300.90599   -1025.1585   -8067759.3    65295.701   -8002463.6    712250.86    1.1566363    68.257733    68.257733    152.87246 
   35900    72799    302.27723   -970.06859   -8067946.5    65593.256   -8002353.2    712416.75     1.156367    68.257851    68.257851    152.90754 
   36000    72799    301.52639    -1018.073     -8067906    65430.326   -8002475.7    712487.91    1.1562515    68.253431    68.253431    152.94262 
   36100    72799    300.13525   -1555.1348   -8068098.9    65128.452   -8002970.4    712954.22    1.1554953    68.267934    68.267934     152.9777 
   36200    72799    298.42145   -39.317542   -8067701.4    64756.562   -8002944.8     713101.7    1.1552563    68.267168    68.267168    153.01278 
   36300    72799    299.42404   -844.33662   -8067468.1    64974.121     -8002494    712731.12     1.155857    68.241606    68.241606    153.04785 
   36400    72799    299.62486   -869.04825   -8067216.3      65017.7   -8002198.6    712345.07    1.1564834    68.215305    68.215305    153.08293 
   36500    72799    299.75729   -513.99224   -8067142.8    65046.436   -8002096.4    711906.78    1.1571954    68.186504    68.186504    153.11801 
   36600    72799    299.96397   -1878.4266   -8067193.1    65091.284   -8002101.8    711680.43    1.1575634    68.167855    68.167855    153.15309 
   36700    72799    298.45235   -1069.8782   -8067254.6    64763.268   -8002491.4    711580.08    1.1577267    68.155244    68.155244    153.18817 
   36800    72799     299.1785    702.00127   -8067652.8     64920.84     -8002732    711315.74    1.1581569    68.134783    68.134783    153.22325 
   36900    72799     300.3737    -3240.505   -8067672.4    65180.195   -8002492.2    711447.83    1.1579419     68.13331     68.13331    153.25833 
   37000    72799    300.55468   -1661.1834   -8067490.2    65219.466   -8002270.7    711161.19    1.1584086    68.111789    68.111789     153.2934 
   37100    72799    299.74234   -1799.5244   -8067364.4    65043.191   -8002321.2    710939.73    1.1587694    68.093393    68.093393    153.32848 
   37200    72799    299.04662   -199.17915   -8067809.3    64892.222   -8002917.1    710769.02    1.1590477     68.07743     68.07743    153.36356 
   37300    72799     298.6475   -2268.5197   -8067718.2    64805.615   -8002912.6    711038.85    1.1586079    68.082565    68.082565    153.39864 
   37400    72799    299.69099   -398.31978   -8067574.7    65032.049   -8002542.7    711337.29    1.1581218    68.089067    68.089067    153.43372 
   37500    72799    299.59353   -510.44441   -8067250.9    65010.901     -8002240    711441.71    1.1579518    68.086281    68.086281     153.4688 
   37600    72799    300.70155   -1581.9527   -8067519.3    65251.338   -8002267.9    711646.96    1.1576178    68.088321    68.088321    153.50388 
   37700    72799    300.74871     423.2975   -8067612.5    65261.571   -8002350.9    711790.05    1.1573851    68.087387    68.087387    153.53896 
   37800    72799    298.83046   -539.33337   -8067368.7    64845.316   -8002523.4    711774.47    1.1574105    68.078865    68.078865    153.57403 
   37900    72799    300.26628   -626.14623   -8067854.4    65156.885   -8002697.5    711677.65    1.1575679    68.066461    68.066461    153.60911 
   38000    72799    298.89429    -1600.958   -8067942.3    64859.167   -8003083.1    712061.67    1.1569436     68.07705     68.07705    153.64419 
   38100    72799     299.6834   -1030.6941   -8068035.2    65030.402   -8003004.8    712498.78    1.1562339     68.09017     68.09017    153.67927 
   38200    72799    299.30441   -2605.2472   -8067479.4    64948.162   -8002531.2    712872.78    1.1556273    68.100267    68.100267    153.71435 
   38300    72799    299.58319   -420.60436   -8067251.2    65008.657   -8002242.5    712529.61    1.1561838    68.076106    68.076106    153.74943 
   38400    72799    300.73374    -1049.886   -8067395.2    65258.322   -8002136.9    712145.16     1.156808    68.049976    68.049976    153.78451 
   38500    72799    299.68335   -2351.9698   -8067318.1    65030.391   -8002287.7    712365.81    1.1564497    68.052756    68.052756    153.81958 
   38600    72799    299.20381    100.75781   -8067657.1    64926.332   -8002730.8    712575.21    1.1561099    68.054998    68.054998    153.85466 
   38700    72799    298.04535   -1038.0886   -8067549.9     64674.95     -8002875    712603.64    1.1560637    68.048598    68.048598    153.88974 
   38800    72799     299.8395     1753.856   -8067604.3    65064.274     -8002540    712277.61    1.1565929    68.025277    68.025277    153.92482 
   38900    72799    300.80615   -1590.2948   -8067711.9    65274.034   -8002437.9    712119.61    1.1568495    68.009983    68.009983     153.9599 
   39000    72799    299.87923    547.49736   -8067556.7    65072.896   -8002483.8       711715    1.1575072    67.982915    67.982915    153.99498 
   39100    72799    299.65187   -1700.7748   -8067667.3     65023.56   -8002643.7    712277.17    1.1565936    68.002014    68.002014    154.03006 
   39200    72799    298.86022   -466.87337     -8067608    64851.774   -8002756.3    712638.94    1.1560065    68.011537    68.011537    154.06513 
   39300    72799    300.25673   -1225.3731     -8067454    65154.812   -8002299.1     712744.5    1.1558353    68.008832    68.008832    154.10021 
   39400    72799     300.9791   -2115.0172   -8067372.7    65311.565   -8002061.1    712698.67    1.1559096    67.998907    67.998907    154.13529 
   39500    72799    300.50577   -480.46029   -8067362.6    65208.853   -8002153.8    712859.48    1.1556488    67.998841    67.998841    154.17037 
   39600    72799    299.70937   -696.41932   -8067543.1    65036.037   -8002507.1    713011.13     1.155403    67.998338    67.998338    154.20545 
   39700    72799    298.75353    610.25303   -8067570.2    64828.623   -8002741.6    713254.66    1.1550085    68.002215    68.002215    154.24053 
   39800    72799    299.39405   -453.68451   -8067613.7    64967.613   -8002646.1     713519.3    1.1545802    68.007096    68.007096    154.27561 
   39900    72799    299.67488   -753.19109   -8067544.9    65028.552   -8002516.4    713681.78    1.1543173    68.007108    68.007108    154.31068 
   40000    72799     300.5153    189.08721   -8067548.4    65210.922   -8002337.4    713922.45    1.1539282    68.010844    68.010844    154.34576 
   40100    72799    299.92467   -1882.5249   -8067263.9    65082.757   -8002181.1    714262.44    1.1533789    68.019307    68.019307    154.38084 
   40200    72799    300.71646   -1148.8043   -8067221.5    65254.572     -8001967    714315.88    1.1532926    68.014125    68.014125    154.41592 
   40300    72799    300.44749   -1009.1386   -8067329.6    65196.206   -8002133.4    714240.33    1.1534146    68.002805    68.002805      154.451 
   40400    72799    298.84463   -856.83956   -8067404.7     64848.39   -8002556.3    714601.46    1.1528317    68.012271    68.012271    154.48608 
   40500    72799    299.01356    425.81031     -8067423    64885.048   -8002537.9    714705.03    1.1526647    68.009479    68.009479    154.52116 
   40600    72799    299.93702   -1358.4006   -8067405.2    65085.437   -8002319.8    714499.19    1.1529967    67.991967    67.991967    154.55623 
   40700    72799    300.43282   -845.80581   -8067148.3    65193.024   -8001955.3     714280.6    1.1533496    67.973853    67.973853    154.59131 
   40800    72799    301.33233    -582.3501   -8067034.3    65388.215     -8001646    714181.95    1.1535089    67.961448    67.961448    154.62639 
   40900    72799    299.26102    517.98726   -8067111.8    64938.747     -8002173    713898.87    1.1539663    67.940272    67.940272    154.66147 
   41000    72799    299.18671   -1626.0897   -8067310.1    64922.622   -8002387.5    713891.95    1.1539775    67.932239    67.932239    154.69655 
   41100    72799    299.87048   -1505.5679   -8067398.9    65070.998     -8002328    713972.25    1.1538477    67.928358    67.928358    154.73163 
   41200    72799    300.71263   -223.15021   -8067486.6    65253.741   -8002232.8    714111.48    1.1536227    67.927282    67.927282    154.76671 
   41300    72799    299.84411    368.66302   -8067412.7    65065.275   -8002347.5    714300.98    1.1533167    67.928596    67.928596    154.80178 
   41400    72799    299.34113    -2202.519   -8067425.1    64956.129     -8002469    714818.24    1.1524821    67.945489    67.945489    154.83686 
   41500    72799    299.77275   -69.169635   -8067459.9    65049.791   -8002410.1    715186.66    1.1518884    67.955299    67.955299    154.87194 
   41600    72799     300.6276   -1487.8481   -8067312.1     65235.29   -8002076.8    715290.28    1.1517215    67.952527    67.952527    154.90702 
   41700    72799    300.97887   -2076.1174   -8067253.8    65311.516   -8001942.2    714989.84    1.1522055    67.930564    67.930564     154.9421 
   41800    72799    299.72008    -805.3073     -8067298     65038.36   -8002259.7    714779.55    1.1525445    67.912886    67.912886    154.97718 
   41900    72799    300.15609    -631.2535   -8067746.1    65132.973   -8002613.1    714731.84    1.1526214    67.902935    67.902935    155.01226 
   42000    72799    299.54885    405.27915   -8067584.9    65001.204   -8002583.7    714798.83    1.1525134    67.898435    67.898435    155.04733 
   42100    72799    299.96345   -475.77558   -8067464.9    65091.171   -8002373.8    714753.88    1.1525859    67.888621    67.888621    155.08241 
   42200    72799    299.89476   -470.09256   -8067346.3    65076.267   -8002270.1    714286.44    1.1533401    67.858744    67.858744    155.11749 
   42300    72799     299.5039   -1449.0113   -8067120.6    64991.451   -8002129.2    714093.24    1.1536522    67.841896    67.841896    155.15257 
   42400    72799    300.53226    272.81652   -8067251.4    65214.603   -8002036.8    714207.81    1.1534671    67.839669    67.839669    155.18765 
   42500    72799    299.77426   -1127.6505   -8067420.9    65050.118   -8002370.8    714970.05    1.1522374    67.868191    67.868191    155.22273 
   42600    72799     299.0847   -194.30543   -8067630.6    64900.486   -8002730.2    715366.28    1.1515992    67.879324    67.879324    155.25781 
   42700    72799    299.71414   -907.22391   -8067584.2    65037.073   -8002547.1     715703.6    1.1510564    67.887657    67.887657    155.29288 
   42800    72799    299.88208   -715.12279   -8067240.1    65073.515   -8002166.5    715414.81    1.1515211    67.866295    67.866295    155.32796 
   42900    72799    300.20334    67.724764   -8067101.4    65143.226   -8001958.2    715357.97    1.1516126    67.855937    67.855937    155.36304 
   43000    72799    299.78544   -782.54785   -8067041.4    65052.544   -8001988.9    715564.46    1.1512802     67.85807     67.85807    155.39812 
   43100    72799    300.20673   -1644.8765   -8067363.1    65143.962   -8002219.1    715863.82    1.1507988    67.864603    67.864603     155.4332 
   43200    72799    300.73716   -346.55449   -8067561.9    65259.065   -8002302.8    716360.84    1.1500004    67.880499    67.880499    155.46828 
   43300    72799    300.46897   -1225.7313   -8067479.9    65200.869     -8002279    716672.34    1.1495005    67.887598    67.887598    155.50336 
   43400    72799    300.71813    -1051.201   -8067420.8    65254.935   -8002165.9    716438.15    1.1498763     67.86885     67.86885    155.53843 
   43500    72799    300.33613   -1255.2138   -8067272.7    65172.041   -8002100.7    715682.96    1.1510896    67.825423    67.825423    155.57351 
   43600    72799    301.33868   -282.46514   -8067568.8    65389.592   -8002179.2    715408.36    1.1515315    67.804766    67.804766    155.60859 
   43700    72799    300.10758   -591.77526   -8067763.2    65122.447   -8002640.8    715093.58    1.1520383    67.782208    67.782208    155.64367 
   43800    72799     298.6789   -4.3508122   -8067597.2    64812.428   -8002784.8    714792.56    1.1525235    67.760304    67.760304    155.67875 
   43900    72799    298.79988   -1021.9257   -8067411.8     64838.68   -8002573.1    714600.27    1.1528336    67.743558    67.743558    155.71383 
   44000    72799    300.78381    -889.7753   -8067450.5    65269.187   -8002181.3    714690.91    1.1526874    67.740224    67.740224    155.74891 
   44100    72799    300.76023   -925.86308   -8067489.4    65264.071   -8002225.3    714657.13    1.1527419    67.730996    67.730996    155.78398 
   44200    72799    298.90773   -734.32163   -8067125.1    64862.084     -8002263    715307.88    1.1516932    67.754198    67.754198    155.81906 
   44300    72799    299.52462   -1766.5875   -8067118.8    64995.947   -8002122.9    715862.05    1.1508016     67.77281     67.77281    155.85414 
   44400    72799    300.98147   -1493.5273   -8067175.7    65312.079   -8001863.6     716207.9    1.1502459    67.781552    67.781552    155.88922 
   44500    72799    300.84233   -1119.2662   -8067126.3    65281.885   -8001844.5    716252.86    1.1501737    67.776055    67.776055     155.9243 
   44600    72799    300.56499   -639.64427   -8067489.9    65221.704   -8002268.2    716571.96    1.1496615    67.783526    67.783526    155.95938 
   44700    72799    299.57375   -1397.4971     -8067498    65006.609   -8002491.4    716802.34     1.149292    67.786799    67.786799    155.99446 
   44800    72799    299.71342   -564.24742   -8067440.5    65036.916   -8002403.6    716691.39      1.14947    67.773933    67.773933    156.02953 
   44900    72799     299.9821   -426.11166   -8067139.4    65095.219   -8002044.2    716717.72    1.1494277     67.76756     67.76756    156.06461 
   45000    72799    300.63538   -595.95869   -8067044.9    65236.979     -8001808    716712.34    1.1494364    67.759691    67.759691    156.09969 
   45100    72799    299.83589   -1652.2828   -8067414.8    65063.492   -8002351.3    716502.84    1.1497724    67.742176    67.742176    156.13477 
   45200    72799    298.84205   -1494.2525   -8067470.6    64847.832   -8002622.8     716414.3    1.1499145    67.730383    67.730383    156.16985 
   45300    72799    300.15903    121.96454   -8067573.6    65133.613     -8002440    716178.82    1.1502926    67.711646    67.711646    156.20493 
   45400    72799     300.9992   -711.82683   -8067406.5    65315.927   -8002090.6    716078.44    1.1504539      67.6993      67.6993    156.24001 
   45500    72799    300.86623   -646.69802   -8067306.5    65287.073   -8002019.4    716213.99    1.1502362    67.698107    67.698107    156.27508 
   45600    72799    300.16929   -196.13183   -8067319.7    65135.838   -8002183.8    716697.64    1.1494599    67.713362    67.713362    156.31016 
   45700    72799    299.14469   -1913.5627   -8067564.4    64913.503   -8002650.9    717342.38    1.1484268    67.736213    67.736213    156.34524 
   45800    72799    300.10626    -1345.725   -8067791.1    65122.161     -8002669    717635.71    1.1479574    67.742461    67.742461    156.38032 
   45900    72799    298.65026   -299.71129   -8067085.3    64806.214   -8002279.1    717332.96    1.1484419    67.720575    67.720575     156.4154 
   46000    72799    299.93823   -1458.8048     -8067145      65085.7   -8002059.3    717052.31    1.1488914    67.699736    67.699736    156.45048 
   46100    72799    299.55056    731.07772   -8066971.4    65001.575   -8001969.8    717053.99    1.1488887    67.692227    67.692227    156.48556 
   46200    72799    298.75757    594.09917   -8066981.4      64829.5   -8002151.9    716816.55    1.1492693    67.673434    67.673434    156.52063 
   46300    72799    298.49283   -948.42144   -8067242.9    64772.051   -8002470.8    716699.79    1.1494565     67.66034     67.66034    156.55571 
   46400    72799    298.20048     692.5086   -8067285.8    64708.613   -8002577.2    716573.78    1.1496586    67.646814    67.646814    156.59079 
   46500    72799     300.8855   -1678.8695   -8067259.5    65291.253   -8001968.2    716329.68    1.1500504    67.627717    67.627717    156.62587 
   46600    72799    300.67412   -322.48956   -8067084.3    65245.386   -8001838.9    716254.24    1.1501715    67.616584    67.616584    156.66095 
   46700    72799    300.29235    -2426.688   -8067243.9    65162.541   -8002081.4    716345.53    1.1500249    67.613323    67.613323    156.69603 
   46800    72799     298.8582    296.23822   -8067259.8    64851.335   -8002408.5    716590.14    1.1496324    67.617298    67.617298    156.73111 
   46900    72799    298.70313   -440.85069   -8067187.5    64817.687   -8002369.9     717301.1    1.1484929    67.643264    67.643264    156.76618 
   47000    72799    299.75425   -813.73384   -8067311.7    65045.776     -8002266    717478.06    1.1482096    67.644039    67.644039    156.80126 
   47100    72799    299.46485   -1414.0613   -8067095.8    64982.977   -8002112.8    717245.09    1.1485826    67.625492    67.625492    156.83634 
   47200    72799    300.92186   -530.93707   -8066752.9    65299.144   -8001453.8    717562.13    1.1480751    67.632874    67.632874    156.87142 
   47300    72799    300.70927   -897.50569   -8066851.1    65253.013   -8001598.1    718036.54    1.1473166    67.647664    67.647664     156.9065 
   47400    72799    300.34037    1188.8759   -8067120.6    65172.962   -8001947.7    718411.77    1.1467173    67.657775    67.657775    156.94158 
   47500    72799    298.62811    -383.9684   -8066986.6    64801.407   -8002185.2    718635.48    1.1463603    67.660748    67.660748    156.97666 
   47600    72799    298.56684   -1279.1193   -8067138.8    64788.111   -8002350.7    718638.21     1.146356    67.653317    67.653317    157.01173 
   47700    72799    298.51074   -786.65108   -8067086.4    64775.937   -8002310.5    718866.84    1.1459914    67.656521    67.656521    157.04681 
   47800    72799    300.52998   -1192.4897   -8066906.4    65214.106   -8001692.3    719087.55    1.1456397     67.65935     67.65935    157.08189 
   47900    72799    300.32917   -262.12661   -8066771.4    65170.532   -8001600.9     718743.7    1.1461878     67.63562     67.63562    157.11697 
   48000    72799    298.87957   -3196.2068   -8066765.1    64855.973   -8001909.2    718457.55    1.1466443    67.614608    67.614608    157.15205 
   48100    72799    300.37253    358.53879   -8067193.6     65179.94   -8002013.6    717777.15    1.1477312    67.575042    67.575042    157.18713 
   48200    72799    299.28893   -774.34881   -8067057.9    64944.804   -8002113.1    717796.71    1.1476999    67.568424    67.568424    157.22221 
   48300    72799     298.8316   -1041.3769   -8067320.7    64845.564   -8002475.1    718228.01    1.1470107    67.581182    67.581182    157.25728 
   48400    72799    297.80641   -626.45286   -8067517.2    64623.101   -8002894.1    718577.42     1.146453     67.59008     67.59008    157.29236 
   48500    72799    298.94853   -1362.5599   -8067581.9    64870.937     -8002711    718669.13    1.1463067    67.586857    67.586857    157.32744 
   48600    72799      299.006   -2722.0638   -8067310.7    64883.408   -8002427.3    718599.73    1.1464174    67.576061    67.576061    157.36252 
   48700    72799    299.55021   -1611.3335   -8067151.2    65001.499   -8002149.7    718539.37    1.1465137    67.565692    67.565692     157.3976 
   48800    72799    301.91469   -728.47356   -8067411.7    65514.584   -8001897.1    718311.89    1.1468768     67.54747     67.54747    157.43268 
   48900    72799    301.95739   -1013.3029   -8067401.4    65523.851   -8001877.6    718082.75    1.1472427    67.529172    67.529172    157.46776 
   49000    72799    298.77628   -1583.6736   -8067112.3     64833.56   -8002278.8    718014.83    1.1473513    67.518459    67.518459    157.50283 
   49100    72799     298.6034   -619.74231   -8067279.2    64796.044   -8002483.2    718520.75    1.1465434    67.534721    67.534721    157.53791 
   49200    72799    299.80306   -1116.4698   -8067312.2    65056.369   -8002255.8    718988.47    1.1457975    67.549178    67.549178    157.57299 
   49300    72799    299.00312   -991.40469   -8067009.4    64882.782   -8002126.6    719047.56    1.1457034    67.544437    67.544437    157.60807 
   49400    72799    300.06196    337.08998     -8067185    65112.548   -8002072.5    719002.62     1.145775     67.53481     67.53481    157.64315 
   49500    72799    299.64981   -1046.1186   -8067122.6    65023.114   -8002099.4    718817.56      1.14607    67.518607    67.518607    157.67823 
   49600    72799    300.38976    194.66028     -8067331    65183.679   -8002147.3    718211.54     1.147037    67.482633    67.482633    157.71331 
   49700    72799     299.9095   -102.94321   -8067282.3    65079.465   -8002202.9    718027.48    1.1473311    67.466483    67.466483    157.74838 
   49800    72799    299.51866   -1071.3865   -8066953.7    64994.654     -8001959    718076.54    1.1472527    67.461288    67.461288    157.78346 
   49900    72799    300.53507   -31.423422   -8066866.6    65215.212   -8001651.4     717716.7    1.1478279    67.436887    67.436887    157.81854 
   50000    72799    301.36524   -446.46056   -8067115.3    65395.355     -8001720    717721.54    1.1478201    67.429621    67.429621    157.85362 
   50100    72799    299.83068     -1587.11     -8067295    65062.361   -8002232.6    717876.46    1.1475724    67.429406    67.429406     157.8887 
   50200    72799     299.1891    -350.5757     -8067260    64923.141   -8002336.8    717854.52    1.1476075    67.420887    67.420887    157.92378 
   50300    72799     300.2448   -386.65034   -8067391.9    65152.223   -8002239.7    717985.43    1.1473982    67.419546    67.419546    157.95886 
   50400    72799    300.30506    894.87711   -8067109.7    65165.301   -8001944.4    717947.07    1.1474596    67.410261    67.410261    157.99394 
   50500    72799    300.17938   -1845.4538   -8066810.6    65138.028   -8001672.6    717732.46    1.1478027    67.392704    67.392704    158.02901 
   50600    72799    300.42898    -959.7385   -8067191.6    65192.191   -8001999.4    718019.14    1.1473444    67.398681    67.398681    158.06409 
   50700    72799    299.37606    169.14182   -8067361.3    64963.711   -8002397.6    718333.18    1.1468428     67.40594     67.40594    158.09917 
   50800    72799     298.8695   -1370.1553   -8067077.3    64853.789   -8002223.5    718637.15    1.1463577    67.412722    67.412722    158.13425 
   50900    72799    300.90488   -403.86725   -8067120.1    65295.458   -8001824.7    718498.45     1.146579    67.398741    67.398741    158.16933 
   51000    72799    299.22198   -1208.4582   -8066709.8    64930.276   -8001779.6    718307.87    1.1468832     67.38233     67.38233    158.20441 
   51100    72799    299.79941    -1521.597   -8066908.8    65055.576   -8001853.3    718314.23     1.146873    67.375159    67.375159    158.23949 
   51200    72799     298.2551    -584.4775     -8066963    64720.466   -8002242.5    718358.08     1.146803    67.369749    67.369749    158.27456 
   51300    72799    299.24724   -994.05365   -8067465.4    64935.757   -8002529.7     718640.9    1.1463517    67.375543    67.375543    158.30964 
   51400    72799    300.35049   -498.04662   -8067461.3    65175.159   -8002286.1    718746.52    1.1461832    67.373031    67.373031    158.34472 
[...]
  387600    72799    300.07171    814.86788   -8068783.9    65114.664   -8003669.2      1126801    0.7311098    63.863061    63.863061    276.27891 
  387700    72799    299.67183   -704.31167   -8068773.6    65027.891   -8003745.7      1127003   0.73097872    63.864733    63.864733    276.31399 
  387800    72799    299.93238   -652.17239   -8068877.1     65084.43   -8003792.7    1126904.9   0.73104236      63.8579      63.8579    276.34907 
  387900    72799    299.45811    -148.1491   -8068881.1    64981.514   -8003899.5    1126801.9   0.73110919    63.850928    63.850928    276.38415 
  388000    72799    299.71301    1273.7153   -8068946.2    65036.827   -8003909.4    1127126.1   0.73089887    63.856063    63.856063    276.41923 
  388100    72799    300.97648   -407.61756   -8069068.5    65310.997   -8003757.5      1127671   0.73054575    63.867441    63.867441    276.45431 
  388200    72799    300.51623   -966.44016   -8068899.4    65211.123   -8003688.3    1128022.5    0.7303181    63.873342    63.873342    276.48939 
  388300    72799    299.26245    792.99006   -8068843.9    64939.057   -8003904.8    1128267.4   0.73015956    63.876224    63.876224    276.52446 
  388400    72799    299.13868    313.88615   -8069079.1    64912.198   -8004166.9    1128270.3    0.7301577    63.872255    63.872255    276.55954 
  388500    72799    299.61147    38.675633   -8069195.8    65014.793     -8004181      1127847   0.73043174    63.856222    63.856222    276.59462 
  388600    72799    300.41859   -422.99436   -8069029.4    65189.936   -8003839.5    1127370.6    0.7307404    63.838687    63.838687     276.6297 
  388700    72799    301.02491    742.10404   -8068933.8    65321.505   -8003612.3    1126675.9   0.73119098    63.814968    63.814968    276.66478 
  388800    72799    300.64974   -267.36412   -8068922.8    65240.094   -8003682.7      1126642   0.73121298    63.809963    63.809963    276.69986 
  388900    72799    299.62829    -134.2069     -8069208    65018.443   -8004189.6    1126706.7   0.73117098    63.807751    63.807751    276.73494 
  389000    72799    298.69774   -54.917105   -8069154.3    64816.518   -8004337.8    1126950.3   0.73101288    63.810606    63.810606    276.77001 
  389100    72799    300.22352   -554.71306   -8069272.9    65147.606   -8004125.3    1127746.4   0.73049686    63.829096    63.829096    276.80509 
  389200    72799    300.32512    83.456232   -8069010.6    65169.652     -8003841    1128026.8   0.73031532    63.832984    63.832984    276.84017 
  389300    72799     300.8408    1178.5767   -8069064.3    65281.555   -8003782.8    1128229.9   0.73018381    63.834688    63.834688    276.87525 
  389400    72799     300.3116   -163.58141   -8069022.7    65166.719   -8003855.9    1127919.6   0.73038468    63.821867    63.821867    276.91033 
  389500    72799    298.87525    859.51551   -8068797.5    64855.035   -8003942.5    1128590.3   0.72995063    63.836795    63.836795    276.94541 
  389600    72799    298.97942   -334.81003   -8068733.8     64877.64   -8003856.1    1128886.9   0.72975884    63.841141    63.841141    276.98049 
  389700    72799    301.12166    679.75174   -8068855.9    65342.499   -8003513.4    1128853.6   0.72978041    63.836155    63.836155    277.01557 
  389800    72799    301.06489    178.94274     -8068849    65330.182   -8003518.8    1128801.5   0.72981408    63.830641    63.830641    277.05064 
  389900    72799    299.48902   -273.73406     -8068928    64988.221   -8003939.8    1127922.2   0.73038301    63.801737    63.801737    277.08572 
  390000    72799     300.1105    415.25398   -8069213.3     65123.08   -8004090.2    1127146.6   0.73088559     63.77576     63.77576     277.1208 
  390100    72799    300.21786    333.58396   -8069255.6    65146.379   -8004109.2    1126650.6   0.73120734    63.757692    63.757692    277.15588 
  390200    72799    300.34613    23.814903     -8069192    65174.212   -8004017.8    1126555.1   0.73126933    63.750955    63.750955    277.19096 
  390300    72799    301.33024    108.09958   -8069018.8    65387.762     -8003631    1126068.7   0.73158523    63.733157    63.733157    277.22604 
  390400    72799    300.44546    801.29865   -8068787.6    65195.766   -8003591.8    1125829.1   0.73174094    63.722345    63.722345    277.26112 
  390500    72799    299.22228   -336.79552   -8068880.4    64930.341   -8003950.1    1126744.2   0.73114661    63.744206    63.744206    277.29619 
  390600    72799    299.10669   -473.39026   -8068948.9    64905.256   -8004043.7    1127353.6   0.73075138    63.757409    63.757409    277.33127 
  390700    72799    300.04443   -619.81262   -8068889.9    65108.744   -8003781.1    1127231.8   0.73083035    63.749933    63.749933    277.36635 
  390800    72799    301.44781   -19.821482   -8068716.1    65413.274   -8003302.8    1127315.6   0.73077604    63.748271    63.748271    277.40143 
  390900    72799    301.95322   -687.59451   -8068506.4    65522.947   -8002983.5    1128039.6     0.730307    63.764707    63.764707    277.43651 
  391000    72799    300.46581   -895.93558     -8068811    65200.183   -8003610.8    1128491.7   0.73001443    63.773452    63.773452    277.47159 
  391100    72799     301.2954     394.8126   -8069263.9    65380.201   -8003883.7    1128601.8   0.72994324    63.772531    63.772531    277.50667 
  391200    72799    299.79697    1287.0438   -8069186.4    65055.045   -8004131.4    1128667.3   0.72990088    63.770351    63.770351    277.54174 
  391300    72799    299.60347   -44.644692   -8069179.9    65013.058   -8004166.9    1128800.3   0.72981488    63.770078    63.770078    277.57682 
  391400    72799    300.82017   -1453.4137   -8069054.5    65277.078   -8003777.4    1129437.4   0.72940317    63.784043    63.784043     277.6119 
  391500    72799    300.99544    1124.2788     -8068885    65315.111   -8003569.9    1129276.7   0.72950697    63.775476    63.775476    277.64698 
  391600    72799    301.51571   -591.31131   -8069139.8    65428.007   -8003711.8    1129754.4   0.72919849    63.784935    63.784935    277.68206 
  391700    72799    299.86272    950.43543     -8069053    65069.313   -8003983.7    1130207.6   0.72890609    63.793698    63.793698    277.71714 
  391800    72799    299.98959   -46.208677     -8069134    65096.844   -8004037.1    1130598.7   0.72865395    63.800705    63.800705    277.75222 
  391900    72799    299.17648    68.021016   -8068842.9    64920.401   -8003922.5    1130117.2   0.72896439    63.783091    63.783091    277.78729 
  392000    72799    300.76866   -136.03765   -8069067.1      65265.9   -8003801.2    1129264.5   0.72951488    63.754996    63.754996    277.82237 
  392100    72799    299.74571    305.45848   -8068902.4    65043.923   -8003858.5    1128937.9    0.7297259    63.741753    63.741753    277.85745 
  392200    72799    298.59857    200.99528     -8068966    64794.996     -8004171    1129147.4   0.72959051    63.743643    63.743643    277.89253 
  392300    72799    299.26286   -165.26219   -8069393.4    64939.146   -8004454.3    1129337.9   0.72946744    63.744997    63.744997    277.92761 
  392400    72799     299.4842   -959.61703   -8069316.7    64987.176   -8004329.5    1129530.6   0.72934299    63.746413    63.746413    277.96269 
  392500    72799    300.02577   -165.86419   -8068954.4    65104.695   -8003849.7    1130166.9   0.72893236    63.760342    63.760342    277.99777 
  392600    72799    300.76455     -45.8747   -8068794.9    65265.008   -8003529.9    1131158.7   0.72829323    63.784289    63.784289    278.03284 
  392700    72799    301.34896   -650.15501   -8069023.4    65391.823   -8003631.6    1131281.1   0.72821443    63.783717    63.783717    278.06792 
  392800    72799    299.58426    357.59734   -8068892.7    65008.888   -8003883.8    1131167.5   0.72828756    63.776492    63.776492      278.103 
  392900    72799    299.05688    223.45932     -8068980     64894.45   -8004085.5    1130531.3   0.72869743    63.754532    63.754532    278.13808 
  393000    72799    298.81113   -321.61936   -8069196.8    64841.122   -8004355.7    1130354.1   0.72881166    63.745516    63.745516    278.17316 
  393100    72799    297.86082    753.82716   -8069177.9    64634.908   -8004542.9    1130717.4   0.72857744    63.751742    63.751742    278.20824 
  393200    72799    299.72143   -977.12999   -8069244.6    65038.654   -8004205.9    1130806.3   0.72852016    63.750229    63.750229    278.24332 
  393300    72799    300.00795   -185.43309   -8068965.3    65100.828   -8003864.5    1131394.1   0.72814172    63.762774    63.762774    278.27839 
  393400    72799    300.49136    47.080339   -8069024.7    65205.726     -8003819    1131877.8   0.72783051    63.772386    63.772386    278.31347 
  393500    72799    299.37622   -1055.1791     -8068908    64963.746   -8003944.3    1132285.7   0.72756833    63.779855    63.779855    278.34855 
  393600    72799    298.21465   -334.30146   -8069133.4    64711.688   -8004421.7    1131941.6   0.72778951    63.766145    63.766145    278.38363 
  393700    72799    298.30518    430.49577   -8069222.6    64731.333   -8004491.3      1131832   0.72786001     63.75904     63.75904    278.41871 
  393800    72799    299.60434    958.94042   -8069180.9    65013.247   -8004167.7    1132123.5    0.7276726    63.763234    63.763234    278.45379 
  393900    72799    300.26269    471.58891   -8069157.6    65156.107   -8004001.4      1132355   0.72752383    63.765736    63.765736    278.48887 
  394000    72799    299.82506    -355.3819   -8068992.1    65061.143     -8003931    1132652.3   0.72733284    63.770091    63.770091    278.52394 
  394100    72799     300.6123    206.18143     -8069060     65231.97   -8003828.1    1132708.2   0.72729698    63.767648    63.767648    278.55902 
  394200    72799    300.18932    310.63943   -8068931.5    65140.185   -8003791.3      1132555   0.72739532    63.759323    63.759323     278.5941 
  394300    72799    300.65638     246.5027     -8069139    65241.535   -8003897.4    1132625.3   0.72735018    63.757288    63.757288    278.62918 
  394400    72799    299.73851    634.21593   -8069279.1    65042.361   -8004236.7    1133002.9   0.72710775    63.763902    63.763902    278.66426 
  394500    72799    300.04247    212.40881   -8069354.7     65108.32   -8004246.4    1133889.8   0.72653906    63.784838    63.784838    278.69934 
  394600    72799     300.8099    262.09428   -8069225.5    65274.848   -8003950.6    1134770.2   0.72597537    63.805581    63.805581    278.73442 
  394700    72799    301.04744    517.94363   -8068895.1    65326.395   -8003568.7    1134969.4   0.72584795    63.807166    63.807166    278.76949 
  394800    72799    300.76203   -304.37947   -8068992.4    65264.461     -8003728      1135428   0.72555482    63.816039    63.816039    278.80457 
  394900    72799    299.82623   -617.64034   -8069113.3    65061.395   -8004051.9    1136459.9   0.72489602    63.841015    63.841015    278.83965 
  395000    72799    299.12472   -729.84364   -8068946.4    64909.169   -8004037.3    1137191.8   0.72442943    63.857554    63.857554    278.87473 
  395100    72799    300.43093   -347.55878   -8069098.4    65192.613   -8003905.8      1136908   0.72461031    63.845569    63.845569    278.90981 
  395200    72799    300.61076   -643.94163   -8068981.9    65231.637   -8003750.3    1136954.9   0.72458041    63.842871    63.842871    278.94489 
  395300    72799    300.07374    409.15153   -8068888.8    65115.104   -8003773.7    1137249.8   0.72439249    63.847137    63.847137    278.97997 
  395400    72799    300.11389   -946.67112     -8069193    65123.818   -8004069.2      1137950   0.72394675    63.862775    63.862775    279.01504 
  395500    72799     299.9838    241.14927   -8069381.1    65095.587   -8004285.5    1137965.1   0.72393715    63.859184    63.859184    279.05012 
  395600    72799    300.13581   -116.54612   -8069061.7    65128.574   -8003933.2    1137071.6   0.72450604    63.830096    63.830096     279.0852 
  395700    72799    300.29529    427.10263   -8068766.5     65163.18   -8003603.3    1136469.6   0.72488978    63.809189    63.809189    279.12028 
  395800    72799    300.48054   -581.73369   -8068939.2    65203.378   -8003735.8    1137132.2   0.72446744    63.823775    63.823775    279.15536 
  395900    72799    299.56719    978.85539     -8068991    65005.185   -8003985.8    1137406.7    0.7242926    63.827467    63.827467    279.19044 
  396000    72799    300.06238   -279.05369   -8069167.1    65112.639   -8004054.5    1137766.4   0.72406356    63.833552    63.833552    279.22552 
  396100    72799    299.79903   -83.584042   -8068763.1    65055.492   -8003707.7    1137727.5   0.72408836    63.828449    63.828449    279.26059 
  396200    72799    301.78662    634.92773   -8068840.7    65486.794   -8003353.9    1137640.6   0.72414363    63.822005    63.822005    279.29567 
  396300    72799    301.27673    215.18531     -8069024    65376.149   -8003647.9      1138164   0.72381062    63.832677    63.832677    279.33075 
  396400    72799     298.6272   -286.38271   -8068791.6     64801.21   -8003990.4    1138322.7   0.72370975    63.833117    63.833117    279.36583 
  396500    72799    300.45205    217.10942   -8069136.8    65197.196   -8003939.6    1138528.4   0.72357896    63.834878    63.834878    279.40091 
  396600    72799    300.14986    172.70618   -8069133.8    65131.622   -8004002.1    1138159.3   0.72381363    63.820523    63.820523    279.43599 
  396700    72799    298.69988    423.23776   -8069241.5     64816.98   -8004424.5    1137313.8   0.72435173     63.79281     63.79281    279.47107 
  396800    72799    298.30094    324.48664   -8069248.3    64730.411   -8004517.9    1136589.9   0.72481309    63.768502    63.768502    279.50614 
  396900    72799    300.30606     266.0031   -8069097.3    65165.518   -8003931.8    1136811.5   0.72467178    63.770717    63.770717    279.54122 
  397000    72799    299.87825    337.73211   -8068795.8    65072.683   -8003723.1    1136811.2   0.72467199    63.766707    63.766707     279.5763 
  397100    72799    301.51994   -478.59306   -8069172.5    65428.925   -8003743.6    1137666.7   0.72412703    63.786696    63.786696    279.61138 
  397200    72799    299.51461   -824.21583   -8069060.6    64993.775   -8004066.8    1138680.8   0.72348215    63.811115    63.811115    279.64646 
  397300    72799    300.11262    75.839668   -8069372.5     65123.54   -8004248.9    1138312.2   0.72371642    63.796785    63.796785    279.68154 
  397400    72799     299.5692    745.73422   -8069145.1     65005.62   -8004139.4    1137682.3   0.72411711    63.775133    63.775133    279.71662 
  397500    72799    301.90991     669.2516   -8069028.3    65513.548   -8003514.8    1138127.5   0.72383388    63.783609    63.783609    279.75169 
  397600    72799    301.23176   -412.75429   -8068869.4     65366.39     -8003503    1139212.5   0.72314448    63.810005    63.810005    279.78677 
  397700    72799    301.44991    -51.61645   -8069147.1     65413.73   -8003733.4    1140116.9   0.72257081    63.831329    63.831329    279.82185 
  397800    72799    299.77667    235.11532   -8069000.3     65050.64   -8003949.7    1140928.2   0.72205703    63.850033    63.850033    279.85693 
  397900    72799    300.60145   -752.32536   -8069245.6    65229.617     -8004016    1141828.9   0.72148743    63.871229    63.871229    279.89201 
  398000    72799    299.54267    658.00054   -8069151.5    64999.865   -8004151.6    1141786.1   0.72151449    63.866029    63.866029    279.92709 
  398100    72799    298.67119   -169.46103   -8069031.6    64810.755   -8004220.8    1141620.3    0.7216193     63.85739     63.85739    279.96217 
  398200    72799    299.93519    299.68957   -8069072.2    65085.039   -8003987.1    1141450.1   0.72172691    63.848629    63.848629    279.99724 
  398300    72799    301.23856    88.936609   -8069172.3    65367.868   -8003804.5      1141597   0.72163402    63.848739    63.848739    280.03232 
  398400    72799    300.21947    81.437012     -8069258    65146.728   -8004111.3    1141960.5   0.72140433    63.854903    63.854903     280.0674 
  398500    72799     297.7864   -451.86634   -8068937.8    64618.758   -8004319.1    1142127.2   0.72129902    63.855566    63.855566    280.10248 
  398600    72799    299.31804   -731.32041   -8068932.1    64951.119     -8003981    1141929.2   0.72142406    63.846034    63.846034    280.13756 
  398700    72799     299.5795    -458.1931   -8068824.5    65007.855   -8003816.6    1141715.6   0.72155903    63.836066    63.836066    280.17264 
  398800    72799    300.61158    591.16056   -8068935.1    65231.814   -8003703.3    1142101.7   0.72131511    63.842862    63.842862    280.20772 
  398900    72799    300.48751   -890.16773   -8068837.1    65204.892   -8003632.2    1142276.8   0.72120453     63.84376     63.84376    280.24279 
  399000    72799    299.51896    1247.5345   -8068894.6    64994.719   -8003899.9    1142231.8   0.72123294    63.838507    63.838507    280.27787 
  399100    72799    299.06095    288.56543   -8069139.9    64895.333   -8004244.5      1142268   0.72121009    63.835524    63.835524    280.31295 
  399200    72799    298.03732    205.00107   -8068806.5    64673.208   -8004133.3    1142358.5     0.721153    63.834057    63.834057    280.34803 
  399300    72799    299.56185    621.86908   -8068752.3    65004.026   -8003748.3      1142738   0.72091347    63.840667    63.840667    280.38311 
  399400    72799    300.98135    37.394756   -8069032.7    65312.053   -8003720.6    1143026.8   0.72073132     63.84474     63.84474    280.41819 
  399500    72799    299.69892    183.45659   -8068984.2     65033.77   -8003950.5    1143482.9   0.72044385    63.853482    63.853482    280.45327 
  399600    72799    299.74784    496.68831   -8069191.7    65044.386   -8004147.3      1144028   0.72010055    63.864707    63.864707    280.48834 
  399700    72799    299.75504   -562.29366   -8069157.7    65045.947   -8004111.8      1144743   0.71965079    63.880666    63.880666    280.52342 
  399800    72799    301.24423    399.67161   -8069021.4    65369.097   -8003652.3    1144262.4   0.71995305    63.863263    63.863263     280.5585 
  399900    72799    302.48386    273.27309   -8069006.7    65638.092   -8003368.6    1142870.2   0.72083006    63.820411    63.820411    280.59358 
  400000    72799     301.0806    1277.0857   -8069022.7     65333.59   -8003689.1    1141930.4   0.72142331    63.790177    63.790177    280.62866 
Loop time of 197051 on 56 procs for 400000 steps with 72799 atoms

Performance: 0.044 ns/day, 547.363 hours/ns, 2.030 timesteps/s
95.0% CPU use with 56 MPI tasks x no OpenMP threads

MPI task timing breakdown:
Section |  min time  |  avg time  |  max time  |%varavg| %total
---------------------------------------------------------------
Pair    | 53065      | 90054      | 1.0402e+05 |5373.7 | 45.70
Neigh   | 3417.3     | 6148.5     | 8274       |2087.9 |  3.12
Comm    | 4162.7     | 17949      | 54912      |11744.1 |  9.11
Output  | 9.7068     | 10.261     | 10.286     |   2.3 |  0.01
Modify  | 79505      | 82876      | 87233      | 795.5 | 42.06
Other   |            | 12.16      |            |       |  0.01

Nlocal:    1299.98 ave 2259 max 0 min
Histogram: 16 0 0 0 0 8 4 5 4 19
Nghost:    10037.8 ave 16937 max 642 min
Histogram: 16 0 0 0 0 14 2 0 0 24
Neighs:    1.12006e+06 ave 2.10589e+06 max 0 min
Histogram: 16 0 0 0 7 6 4 2 8 13

Total # of neighbors = 62723597
Ave neighs/atom = 861.6
Neighbor list builds = 40000
Dangerous builds not checked
write_restart restart.after_deform
unfix 1
unfix 2
unfix 3
unfix std
unfix bd

Please see the log.cite file for references relevant to this simulation

Total wall time: 54:44:13
