LAMMPS (2 Aug 2019)
#lammps code to run fracture simulations on PNC with two cnt horizontal arrangement
#functionalized 10 % with -OH group
#cnt not fixed during nvt equilibration in materials studio

units		real
atom_style 	charge
boundary 	p p p
read_data       two_cnt_v_f.data
  orthogonal box = (0.668324 -1.51545 0.195617) to (70.6683 68.4846 140.196)
  2 by 4 by 7 MPI processor grid
  reading atoms ...
  72085 atoms
  read_data CPU = 0.225317 secs

pair_style	reax/c control_file lgvdw yes
pair_coeff	* * ffield.reax.lg C C H O C C C O O C C
Reading potential file ffield.reax.lg with DATE: 2012-01-06

neighbor	4 bin
neigh_modify	every 10 delay 0 check no

thermo 100
thermo_style custom step atoms temp press pe ke etotal vol density lx ly lz      #output variables

fix std all qeq/reax 1 0.0 10.0 1e-6 reax/c
min_style	 cg							#conjugate gradient minimization
minimize	 1.0e-6 1.0e-8 10000 100000
WARNING: Using 'neigh_modify every 1 delay 0 check yes' setting during minimization (../min.cpp:168)
Neighbor list info ...
  update every 1 steps, delay 0 steps, check yes
  max neighbors/atom: 2000, page size: 100000
  master list distance cutoff = 14
  ghost atom cutoff = 14
  binsize = 7, bins = 10 10 20
  2 neighbor lists, perpetual/occasional/extra = 2 0 0
  (1) pair reax/c, perpetual
      attributes: half, newton off, ghost
      pair build: half/bin/newtoff/ghost
      stencil: half/ghost/bin/3d/newtoff
      bin: standard
  (2) fix qeq/reax, perpetual, copy from (1)
      attributes: half, newton off, ghost
      pair build: copy
      stencil: none
      bin: none
Per MPI rank memory allocation (min/avg/max) = 309.3 | 321.8 | 329.6 Mbytes
Step Atoms Temp Press PotEng KinEng TotEng Volume Density Lx Ly Lz 
       0    72085            0    290914.73   -7621268.2            0   -7621268.2       686000    1.1927332           70           70          140 
      40    72085            0    8792.9086     -8010329            0     -8010329       686000    1.1927332           70           70          140 
Loop time of 89.1546 on 56 procs for 40 steps with 72085 atoms

93.6% CPU use with 56 MPI tasks x no OpenMP threads

Minimization stats:
  Stopping criterion = energy tolerance
  Energy initial, next-to-last, final = 
        -7621268.24371     -8010326.80028     -8010328.97414
  Force two-norm initial, final = 64741.4 5316.31
  Force max component initial, final = 826.395 273.938
  Final line search alpha, max atom move = 9.42042e-05 0.0258061
  Iterations, force evaluations = 40 112

MPI task timing breakdown:
Section |  min time  |  avg time  |  max time  |%varavg| %total
---------------------------------------------------------------
Pair    | 26.499     | 28.512     | 29.425     |  13.9 | 31.98
Neigh   | 0          | 0          | 0          |   0.0 |  0.00
Comm    | 1.0886     | 2.101      | 4.0054     |  49.5 |  2.36
Output  | 0          | 0          | 0          |   0.0 |  0.00
Modify  | 58.248     | 58.279     | 58.306     |   0.1 | 65.37
Other   |            | 0.263      |            |       |  0.29

Nlocal:    1287.23 ave 1377 max 1172 min
Histogram: 2 2 6 2 9 4 16 7 6 2
Nghost:    13131.2 ave 13435 max 12752 min
Histogram: 5 5 5 1 2 5 11 10 11 1
Neighs:    1.22459e+06 ave 1.35977e+06 max 1.0716e+06 min
Histogram: 2 3 6 5 7 7 11 11 3 1

Total # of neighbors = 68576825
Ave neighs/atom = 951.333
Neighbor list builds = 0
Dangerous builds not checked


#set of equilibrations to reduce the energy of the system

reset_timestep 0
timestep 0.25
#fix nvt_equi all nvt temp 300.0 300.0 25.0
fix npt_equi all npt temp 300.0 300.0 25.0 iso 1.0 1.0 250.0
dump npt_dump all custom 500 dump.npt id type x y z
run 200000
Per MPI rank memory allocation (min/avg/max) = 308.9 | 321.5 | 329.3 Mbytes
Step Atoms Temp Press PotEng KinEng TotEng Volume Density Lx Ly Lz 
       0    72085            0    8792.9077     -8010329            0     -8010329       686000    1.1927332           70           70          140 
     100    72085    66.156284   -3535.2576   -8023642.8    14214.915   -8009427.9    691527.24       1.1832    70.187499    70.187499      140.375 
     200    72085    88.781502   -1301.8326   -8025595.6    19076.367   -8006519.2    688010.43     1.189248    70.068315    70.068315    140.13663 
     300    72085    103.10841   -910.03325   -8024748.7     22154.77   -8002593.9    687303.98    1.1904703    70.044325    70.044325    140.08865 
     400    72085    117.13323    83.458317   -8023366.3    25168.266     -7998198    692063.11    1.1822838    70.205624    70.205624    140.41125 
     500    72085    137.67755    401.05281   -8022493.7    29582.598   -7992911.1    695865.77     1.175823    70.333975    70.333975    140.66795 
     600    72085    155.91525    206.55723   -8020383.9    33501.309   -7986882.6    698359.86    1.1716238    70.417903    70.417903    140.83581 
     700    72085    169.20909    1793.9838   -8016595.6     36357.74   -7980237.8    700536.37    1.1679836    70.490982    70.490982    140.98196 
     800    72085    189.60065     1380.616   -8013905.7    40739.247   -7973166.5    704486.38    1.1614348    70.623223    70.623223    141.24645 
     900    72085     209.0509    213.11926   -8010472.2    44918.498   -7965553.7    707877.72    1.1558706    70.736367    70.736367    141.47273 
    1000    72085    227.60201    552.25234   -8006619.6    48904.551     -7957715    710469.77    1.1516535    70.822601    70.822601     141.6452 
    1100    72085    247.44164    -126.9759     -8002937    53167.466   -7949769.5    712929.07    1.1476808    70.904224    70.904224    141.80845 
    1200    72085    264.52577    222.27538   -7998910.8    56838.311   -7942072.5    714759.81    1.1447412    70.964864    70.964864    141.92973 
    1300    72085    279.61156    777.52081   -7995004.1    60079.775   -7934924.3    714446.61     1.145243    70.954498    70.954498      141.909 
    1400    72085    290.18367   -60.062919   -7991107.6     62351.39   -7928756.2    715144.48    1.1441255    70.977593    70.977593    141.95519 
    1500    72085    299.11599    826.40023   -7988077.5    64270.668   -7923806.9    716998.89    1.1411664    71.038889    71.038889    142.07778 
    1600    72085     302.3305   -160.67899   -7985309.7    64961.364   -7920348.3     719321.4    1.1374818     71.11551     71.11551    142.23102 
    1700    72085    306.01763    1249.1133     -7984396    65753.614   -7918642.4    720037.63    1.1363503    71.139105    71.139105    142.27821 
    1800    72085    301.80103   -911.96821   -7983964.5    64847.598   -7919116.9    721081.62    1.1347051    71.173471    71.173471    142.34694 
    1900    72085    297.28751   -410.45259   -7984116.4    63877.784   -7920238.6    720740.21    1.1352426    71.162236    71.162236    142.32447 
    2000    72085    298.74348    165.72755     -7984789    64190.626   -7920598.3     719884.3    1.1365924    71.134055    71.134055    142.26811 
    2100    72085    298.62832    11.464029   -7984595.4    64165.883   -7920429.5    719633.87    1.1369879    71.125806    71.125806    142.25161 
    2200    72085    302.73724    138.21963   -7984999.7     65048.76   -7919950.9    719168.51    1.1377236    71.110471    71.110471    142.22094 
    2300    72085    302.95969    197.77667     -7985467    65096.558   -7920370.5    718806.16    1.1382972    71.098526    71.098526    142.19705 
    2400    72085    301.11359   -764.41135   -7986596.5    64699.889   -7921896.6    718903.11    1.1381437    71.101722    71.101722    142.20344 
    2500    72085    297.99293    382.63245   -7987785.2    64029.357   -7923755.8    718902.29     1.138145    71.101695    71.101695    142.20339 
    2600    72085    297.77099    539.49156   -7988694.4    63981.669   -7924712.7    720645.56    1.1353917    71.159121    71.159121    142.31824 
    2700    72085    300.48193    447.94649   -7989387.9    64564.166   -7924823.7    722558.24    1.1323862     71.22202     71.22202    142.44404 
    2800    72085     300.6349    590.58501   -7989882.3    64597.033   -7925285.3    724847.14    1.1288104    71.297146    71.297146    142.59429 
    2900    72085    298.34266    819.13286   -7990150.4    64104.502   -7926045.9    728367.12    1.1233552     71.41237     71.41237    142.82474 
    3000    72085    299.17262    1139.3172   -7990492.7    64282.835   -7926209.9    731773.29    1.1181264    71.523516    71.523516    143.04703 
    3100    72085    298.99365    1285.8345   -7990106.8     64244.38   -7925862.4    735978.48    1.1117377    71.660259    71.660259    143.32052 
    3200    72085     302.2317    1202.8755   -7990247.5    64940.136   -7925307.4    740041.95    1.1056333      71.7919      71.7919     143.5838 
    3300    72085    300.63899    751.48792     -7989986    64597.912   -7925388.1    744048.11    1.0996802    71.921214    71.921214    143.84243 
    3400    72085    299.01745    1548.7343   -7989985.9    64249.495   -7925736.4    747890.11    1.0940311    72.044793    72.044793    144.08959 
    3500    72085    298.40372    1838.6403   -7989853.1    64117.623   -7925735.5    752670.84    1.0870821    72.197978    72.197978    144.39596 
    3600    72085    298.14616    529.09054   -7988884.9    64062.281   -7924822.7    757317.78    1.0804117    72.346255    72.346255    144.69251 
    3700    72085    300.20675    902.88818   -7987902.8    64505.038   -7923397.8    760861.05    1.0753803    72.458908    72.458908    144.91782 
    3800    72085    300.80936    1759.2573   -7986861.4     64634.52   -7922226.9    765405.32    1.0689957    72.602876    72.602876    145.20575 
    3900    72085    301.10289    684.79354   -7986205.6    64697.589     -7921508    770098.46     1.062481    72.750964    72.750964    145.50193 
    4000    72085    301.40659    1435.2063   -7986045.7    64762.845   -7921282.9    774628.09    1.0562682    72.893323    72.893323    145.78665 
    4100    72085    298.42318     1289.138     -7985518    64121.804   -7921396.2    779555.95    1.0495911    73.047569    73.047569    146.09514 
    4200    72085    297.61933    730.94029   -7985194.2    63949.081   -7921245.1       784153     1.043438    73.190875    73.190875    146.38175 
    4300    72085     300.9134    2009.7006   -7985192.7    64656.874   -7920535.8    788276.24    1.0379801    73.318935    73.318935    146.63787 
    4400    72085    300.36512     1970.226   -7984634.4    64539.065   -7920095.3    793222.88    1.0315071     73.47198     73.47198    146.94396 
    4500    72085    301.25031    1582.9951   -7984709.9    64729.265   -7919980.7    797134.47    1.0264454    73.592552    73.592552     147.1851 
    4600    72085    299.52979    562.15089   -7984484.6    64359.581     -7920125    801030.84    1.0214526    73.712263    73.712263    147.42453 
    4700    72085    299.90821    628.48781   -7984774.4    64440.892   -7920333.6    804735.82    1.0167498    73.825735    73.825735    147.65147 
    4800    72085    301.16379     1254.575   -7985233.2    64710.675   -7920522.5    807884.73    1.0127868    73.921902    73.921902     147.8438 
    4900    72085    300.54809     1156.503     -7985395    64578.381   -7920816.6    810833.68    1.0091034    74.011737    74.011737    148.02347 
    5000    72085    300.14017   -257.10542   -7985740.2    64490.731   -7921249.5    813729.65    1.0055121    74.099745    74.099745    148.19949 
    5100    72085    299.74636    388.35746   -7986076.6    64406.113   -7921670.5    814744.91    1.0042591     74.13055     74.13055     148.2611 
    5200    72085    299.50559    1200.8174   -7986216.2     64354.38   -7921861.9    815164.53    1.0037422    74.143274    74.143274    148.28655 
    5300    72085     300.6404   -334.47424     -7986523    64598.215   -7921924.8    816190.99    1.0024798    74.174381    74.174381    148.34876 
    5400    72085     300.3846   -121.07098   -7986696.1    64543.253   -7922152.9    815606.83    1.0031978    74.156681    74.156681    148.31336 
    5500    72085    299.63739    319.29838   -7986717.1      64382.7   -7922334.4    814477.49    1.0045889    74.122438    74.122438    148.24488 
    5600    72085    300.57391   -607.01567   -7987103.6    64583.928   -7922519.6    812772.07    1.0066968    74.070667    74.070667    148.14133 
    5700    72085    301.25481    718.18911   -7987436.6    64730.233   -7922706.4    810603.68    1.0093897    74.004738    74.004738    148.00948 
    5800    72085    297.95026    -1425.685   -7987131.8    64020.189   -7923111.6    808403.34    1.0121371    73.937717    73.937717    147.87543 
    5900    72085    300.30035   -434.66437   -7987568.2     64525.15   -7923043.1    804895.24    1.0165485     73.83061     73.83061    147.66122 
    6000    72085    298.25007   -102.18621   -7987024.8    64084.609   -7922940.2    802521.62    1.0195551    73.757963    73.757963    147.51593 
    6100    72085      301.523   -493.43657   -7987297.9    64787.858   -7922510.1    800191.68    1.0225238    73.686514    73.686514    147.37303 
    6200    72085    300.24772   -177.60713   -7987168.6     64513.84   -7922654.8    797238.16    1.0263119    73.595743    73.595743    147.19149 
    6300    72085    299.72075   -106.65719   -7987601.7    64400.611   -7923201.1    795165.22    1.0289874    73.531901    73.531901     147.0638 
    6400    72085    299.75241      -1338.2     -7987977    64407.415   -7923569.6    792623.99    1.0322865    73.453485    73.453485    146.90697 
    6500    72085     299.3284    -78.25348   -7988137.4    64316.309   -7923821.1    790191.65     1.035464    73.378272    73.378272    146.75654 
    6600    72085    299.09703    -42.82533     -7988204    64266.593   -7923937.4    787474.07    1.0390374    73.294056    73.294056    146.58811 
    6700    72085    300.20092   -1350.9247   -7988270.7    64503.784   -7923766.9     784813.2    1.0425602    73.211409    73.211409    146.42282 
    6800    72085    301.82349    -1058.209   -7988544.4    64852.424     -7923692    781621.03    1.0468181    73.112014    73.112014    146.22403 
    6900    72085     299.9779    -769.4541   -7988615.7    64455.865   -7924159.9    778700.73    1.0507439    73.020846    73.020846    146.04169 
    7000    72085    299.53707   -20.587212   -7988958.5    64361.144   -7924597.3    776821.71    1.0532855    72.962065    72.962065    145.92413 
    7100    72085    300.18614   -692.13146   -7989209.6    64500.608     -7924709    774486.05    1.0564619    72.888867    72.888867    145.77773 
    7200    72085    299.95024    221.77711   -7989146.5    64449.922   -7924696.6    772885.04    1.0586503    72.838608    72.838608    145.67722 
    7300    72085    300.86595    77.228261   -7989351.5    64646.679   -7924704.8    771145.77    1.0610381    72.783929    72.783929    145.56786 
    7400    72085    300.66976    1035.5104   -7989596.6    64604.524   -7924992.1     770287.9    1.0622197    72.756929    72.756929    145.51386 
    7500    72085    299.43581    802.47248   -7990019.3    64339.387   -7925679.9    769165.76    1.0637694    72.721582    72.721582    145.44316 
    7600    72085    297.73393   -161.89349   -7989813.9    63973.706   -7925840.2    768682.54    1.0644381     72.70635     72.70635     145.4127 
    7700    72085    302.36506   -284.60514   -7990299.6     64968.79   -7925330.8    768639.84    1.0644973    72.705003    72.705003    145.41001 
    7800    72085    300.27662   -680.81241     -7989773    64520.051   -7925252.9    768994.44    1.0640064    72.716182    72.716182    145.43236 
    7900    72085    299.60114    997.11729   -7989779.5     64374.91   -7925404.6    769534.69    1.0632594    72.733207    72.733207    145.46641 
    8000    72085     300.0629    240.98927   -7989916.3    64474.129   -7925442.1    770417.95    1.0620404    72.761023    72.761023    145.52205 
    8100    72085     300.1172    397.32485   -7989566.7    64485.797   -7925080.9    770442.39    1.0620067    72.761793    72.761793    145.52359 
    8200    72085    301.25316    693.87674     -7989269    64729.878   -7924539.1    770804.51    1.0615078    72.773191    72.773191    145.54638 
    8300    72085    300.93947    325.28967   -7989007.3    64662.477   -7924344.9    771571.44    1.0604527    72.797319    72.797319    145.59464 
    8400    72085    299.85715    1230.8249   -7989054.5    64429.919   -7924624.6    772361.25    1.0593683    72.822149    72.822149     145.6443 
    8500    72085    301.30292    567.39355   -7989770.2     64740.57   -7925029.7    773498.24    1.0578111    72.857866    72.857866    145.71573 
    8600    72085    299.29875    231.16563   -7989915.7    64309.936   -7925605.8    773894.25    1.0572698    72.870297    72.870297    145.74059 
    8700    72085    299.63946    271.41137   -7990026.1    64383.144     -7925643    774667.75    1.0562141    72.894567    72.894567    145.78913 
    8800    72085    298.26735    947.08378   -7989338.7    64088.321   -7925250.4    775384.11    1.0552383    72.917029    72.917029    145.83406 
    8900    72085    300.76994   -78.314829   -7989150.8    64626.049   -7924524.8    777516.19    1.0523447    72.983802    72.983802     145.9676 
    9000    72085    301.41079    358.30276   -7988932.5    64763.747   -7924168.7     779149.3    1.0501389    73.034865    73.034865    146.06973 
    9100    72085    300.68662    1586.2354   -7989243.9    64608.147   -7924635.7    780397.48    1.0484593    73.073844    73.073844    146.14769 
    9200    72085    298.51702    1555.5548   -7989475.8    64141.968   -7925333.8    782025.86    1.0462761    73.124634    73.124634    146.24927 
    9300    72085    298.22323    488.72212   -7989470.8     64078.84   -7925391.9    782878.92    1.0451361    73.151213    73.151213    146.30243 
    9400    72085    301.11612    392.85838   -7989400.5    64700.434   -7924700.1    783409.49    1.0444283    73.167735    73.167735    146.33547 
    9500    72085    301.41755    542.92395   -7988930.7    64765.201   -7924165.5    784004.56    1.0436355    73.186256    73.186256    146.37251 
    9600    72085     301.4489   -106.49539   -7988886.4    64771.937   -7924114.4    784410.87    1.0430949    73.198897    73.198897    146.39779 
    9700    72085    300.50944   -324.67323   -7989005.7    64570.076   -7924435.7    783765.57    1.0439538    73.178819    73.178819    146.35764 
    9800    72085    299.38468    268.12642   -7989132.6      64328.4   -7924804.2    782960.38    1.0450273     73.15375     73.15375     146.3075 
    9900    72085    301.43405    951.40212   -7989572.9    64768.747   -7924804.1    782441.52    1.0457203    73.137587    73.137587    146.27517 
   10000    72085     299.3566    839.68535   -7989417.4    64322.368     -7925095    781227.04     1.047346    73.099727    73.099727    146.19945 
   10100    72085     298.9895   -1217.7073   -7989412.4    64243.488     -7925169    780809.34    1.0479063    73.086697    73.086697    146.17339 
   10200    72085    300.02474   -1192.6649   -7989384.2    64465.928   -7924918.3    779843.71    1.0492038    73.056556    73.056556    146.11311 
   10300    72085    301.33873    502.70869   -7989695.7    64748.265   -7924947.4    778543.62    1.0509559    73.015935    73.015935    146.03187 
   10400    72085    300.37374   -85.405697   -7990046.6    64540.919   -7925505.6     777849.1    1.0518943    72.994217    72.994217    145.98843 
   10500    72085    298.71173    309.79051   -7990338.7    64183.804   -7926154.9    776103.18    1.0542606    72.939563    72.939563    145.87913 
   10600    72085    298.04048    161.12402     -7990352    64039.574   -7926312.5    774788.18    1.0560499    72.898344    72.898344    145.79669 
   10700    72085    299.98379   -672.98638   -7990191.1    64457.131     -7925734    773961.76    1.0571776    72.872416    72.872416    145.74483 
   10800    72085    301.95504    488.89504   -7990071.5    64880.691   -7925190.8    772939.26    1.0585761    72.840311    72.840311    145.68062 
   10900    72085    300.45097   -1441.3967   -7990099.5    64557.512     -7925542    771820.94    1.0601099    72.805164    72.805164    145.61033 
   11000    72085    298.60881    819.64437   -7990383.1     64161.69   -7926221.4     769749.7    1.0629624     72.73998     72.73998    145.47996 
   11100    72085    298.46839   -522.00101   -7990603.3    64131.519   -7926471.8    768830.53    1.0642332    72.711015    72.711015    145.42203 
   11200    72085    301.31879   -1040.6421   -7991133.1    64743.981   -7926389.1    767139.55    1.0665791    72.657669    72.657669    145.31534 
   11300    72085    300.58245   -981.58298   -7991189.5    64585.763   -7926603.7    765057.98     1.069481    72.591892    72.591892    145.18378 
   11400    72085    299.00367    -355.5196   -7991189.4    64246.534   -7926942.9     763892.5    1.0711128    72.555012    72.555012    145.11002 
   11500    72085    299.10191   -1081.6993   -7991197.8    64267.642   -7926930.1    763404.65    1.0717973    72.539563    72.539563    145.07913 
   11600    72085    299.89263    727.65512   -7990981.8    64437.542   -7926544.3    762061.84    1.0736859    72.497006    72.497006    144.99401 
   11700    72085    301.55824    444.65026   -7990933.5     64795.43   -7926138.1    761700.39    1.0741953    72.485543    72.485543    144.97109 
   11800    72085    300.09927   -585.45507   -7990855.7    64481.944   -7926373.7    760956.59    1.0752453    72.461941    72.461941    144.92388 
   11900    72085     299.6687    667.49177   -7991102.2    64389.428   -7926712.8    759850.92    1.0768099    72.426828    72.426828    144.85366 
   12000    72085    299.57392   -912.47888   -7991422.7    64369.062   -7927053.7    760372.66    1.0760711    72.443401    72.443401     144.8868 
   12100    72085    298.73348    686.92556   -7991428.6    64188.479   -7927240.1    759803.29    1.0768774    72.425315    72.425315    144.85063 
   12200    72085    299.71935    285.73616   -7991450.1    64400.311   -7927049.8    759679.06    1.0770535    72.421367    72.421367    144.84273 
   12300    72085    300.54311    8.7594165   -7991164.4     64577.31   -7926587.1    759951.91    1.0766668    72.430037    72.430037    144.86007 
   12400    72085    301.71311    1207.9818   -7991023.9    64828.708   -7926195.2    758697.66    1.0784467    72.390168    72.390168    144.78034 
   12500    72085    301.01703   -697.50129     -7991089    64679.141   -7926409.9    758665.11     1.078493    72.389133    72.389133    144.77827 
   12600    72085    299.59192    414.50062   -7991443.3     64372.93   -7927070.4    757548.25     1.080083    72.353593    72.353593    144.70719 
   12700    72085    297.28531   -381.91809   -7991521.5     63877.31   -7927644.2    756181.76    1.0820348    72.310062    72.310062    144.62012 
   12800    72085    299.57211    379.60906   -7991869.9    64368.674   -7927501.2    755300.61    1.0832972    72.281964    72.281964    144.56393 
   12900    72085    302.14404    1322.7271   -7991721.7      64921.3   -7926800.4    755148.66    1.0835151    72.277117    72.277117    144.55423 
   13000    72085    301.78258    1370.6258   -7991147.1    64843.635   -7926303.4    755097.77    1.0835882    72.275493    72.275493    144.55099 
   13100    72085    301.71575    1572.8339   -7991402.7    64829.275   -7926573.4    755625.27    1.0828317    72.292319    72.292319    144.58464 
   13200    72085    299.25641   -541.17536   -7991939.9    64300.839   -7927639.1    755884.45    1.0824604    72.300584    72.300584    144.60117 
   13300    72085    297.95903    -81.66259   -7992382.8    64022.073   -7928360.7     754972.7    1.0837677    72.271503    72.271503    144.54301 
   13400    72085    297.67259    15.572412   -7992109.2    63960.526   -7928148.7    754689.79     1.084174    72.262474    72.262474    144.52495 
   13500    72085    301.62215   -264.18969   -7992171.2    64809.162     -7927362    754655.35    1.0842234    72.261375    72.261375    144.52275 
   13600    72085    302.47578   -9.5956561   -7991959.9    64992.581   -7926967.4    754754.63    1.0840808    72.264544    72.264544    144.52909 
   13700    72085    300.00317    377.88018   -7991809.2    64461.295   -7927347.9    753845.61     1.085388     72.23552     72.23552    144.47104 
   13800    72085    298.42465    705.01314   -7991968.9    64122.119   -7927846.7    753685.85    1.0856181    72.230417    72.230417    144.46083 
   13900    72085    299.67334    744.41713   -7992219.2    64390.425   -7927828.7    753708.77    1.0855851    72.231149    72.231149     144.4623 
   14000    72085    299.48926    -615.5589   -7991863.3     64350.87   -7927512.4    753123.67    1.0864285    72.212453    72.212453    144.42491 
   14100    72085    300.41891   -19.694333   -7991775.8    64550.625   -7927225.2    752656.89    1.0871023    72.197531    72.197531    144.39506 
   14200    72085     300.6002    515.40844   -7991855.3    64589.577   -7927265.7    752900.63    1.0867503    72.205324    72.205324    144.41065 
   14300    72085    300.35933   -164.96984   -7992129.4    64537.822   -7927591.5    753007.39    1.0865963    72.208737    72.208737    144.41747 
   14400    72085    298.44207    7.1639657     -7992083    64125.863   -7927957.1    752960.56    1.0866638     72.20724     72.20724    144.41448 
   14500    72085    299.90835   -1226.8408   -7992377.1     64440.92   -7927936.2    752523.32    1.0872952     72.19326     72.19326    144.38652 
   14600    72085    299.98902    -325.0872   -7992395.7    64458.253   -7927937.4    751617.15    1.0886061    72.164271    72.164271    144.32854 
   14700    72085    300.10426   -660.56389   -7992477.2    64483.015   -7927994.1    751156.71    1.0892734    72.149532    72.149532    144.29906 
   14800    72085    299.95693   -1296.2785   -7992669.7    64451.359   -7928218.4     750762.7     1.089845    72.136915    72.136915    144.27383 
   14900    72085    299.26171   -204.17262   -7992760.8    64301.979   -7928458.8     750256.9    1.0905798    72.120711    72.120711    144.24142 
   15000    72085    299.62988   -17.106418   -7992583.9    64381.086   -7928202.9    749874.52    1.0911359    72.108457    72.108457    144.21691 
   15100    72085    300.52767    1395.3139   -7992394.1    64573.993   -7927820.1    749264.08    1.0920249    72.088885    72.088885    144.17777 
   15200    72085    301.37916   -1543.8129   -7992589.8    64756.951   -7927832.8    749913.64     1.091079    72.109711    72.109711    144.21942 
   15300    72085    300.68917   -305.74084   -7992873.7    64608.694     -7928265    749720.26    1.0913604    72.103512    72.103512    144.20702 
   15400    72085    299.04829    -466.5082     -7992893     64256.12   -7928636.9    749030.38    1.0923656    72.081389    72.081389    144.16278 
   15500    72085    298.89571   -346.43474   -7992972.4    64223.335     -7928749    748339.18    1.0933745     72.05921     72.05921    144.11842 
   15600    72085    300.07576     156.2359   -7993178.3    64476.892   -7928701.4    748355.64    1.0933505    72.059738    72.059738    144.11948 
   15700    72085    301.32738   -207.16149   -7993467.7    64745.826   -7928721.8    747487.04     1.094621    72.031848    72.031848     144.0637 
   15800    72085    300.55603   -1352.9954   -7993510.7    64580.087   -7928930.6    746876.85    1.0955153    72.012242    72.012242    144.02448 
   15900    72085    298.42151   -43.143597   -7993270.1    64121.445   -7929148.7    746394.44    1.0962234    71.996735    71.996735    143.99347 
   16000    72085    299.45612    435.04278   -7993303.7    64343.751   -7928959.9    745332.25    1.0977856    71.962566    71.962566    143.92513 
   16100    72085    299.85227    502.26045   -7993063.9    64428.872     -7928635    743494.25    1.1004994    71.903364    71.903364    143.80673 
   16200    72085    300.73458    1131.8012   -7993017.2    64618.451   -7928398.8    742623.05    1.1017905    71.875268    71.875268    143.75054 
   16300    72085    299.82224   -685.05485   -7992806.6    64422.418   -7928384.2    742128.17    1.1025252    71.859299    71.859299     143.7186 
   16400    72085    300.33837    426.03037   -7993002.1    64533.318   -7928468.8    741711.81    1.1031441    71.845858    71.845858    143.69172 
   16500    72085    298.33174   -1143.5536   -7992976.4    64102.156   -7928874.2    742168.13    1.1024658    71.860588    71.860588    143.72118 
   16600    72085    299.97791    209.32279   -7993541.2    64455.867   -7929085.4    741822.21    1.1029799    71.849422    71.849422    143.69884 
   16700    72085    300.07864    113.03397   -7993576.5    64477.511     -7929099    741810.85    1.1029968    71.849055    71.849055    143.69811 
   16800    72085     300.0989    611.10293   -7993389.1    64481.863   -7928907.3    741325.72    1.1037186    71.833389    71.833389    143.66678 
   16900    72085    299.42757    965.09876     -7993016    64337.617   -7928678.4    740801.01    1.1045004    71.816437    71.816437    143.63287 
   17000    72085    300.96202    91.712962   -7993116.5    64667.321   -7928449.2    740337.89    1.1051913    71.801468    71.801468    143.60294 
   17100    72085    299.55139   -953.62383   -7992984.1    64364.221   -7928619.9    740218.21      1.10537    71.797599    71.797599     143.5952 
   17200    72085    300.43649    430.26417   -7993426.1    64554.401   -7928871.7     739564.9    1.1063465     71.77647     71.77647    143.55294 
   17300    72085    300.43497    295.55553   -7993893.3    64554.075   -7929339.2    738694.96    1.1076494    71.748316    71.748316    143.49663 
   17400    72085    299.63194    470.44631     -7994000     64381.53   -7929618.5    737836.34    1.1089383    71.720507    71.720507    143.44101 
   17500    72085    299.33247   -1052.3345   -7993827.1    64317.182     -7929510    737723.69    1.1091077    71.716856    71.716856    143.43371 
   17600    72085    300.25494   -213.80451   -7993760.7    64515.391   -7929245.3    736865.75     1.110399    71.689044    71.689044    143.37809 
   17700    72085    302.38818    889.76754   -7993988.2    64973.758   -7929014.4    736156.61    1.1114687     71.66604     71.66604    143.33208 
   17800    72085    299.39169   -486.63627   -7993550.8    64329.906   -7929220.9    736035.89     1.111651    71.662122    71.662122    143.32424 
   17900    72085    299.47139   -49.408153     -7993632    64347.033     -7929285     735159.1    1.1129768    71.633655    71.633655    143.26731 
   18000    72085    302.19945   -491.79331   -7994143.1    64933.206   -7929209.9    735164.16    1.1129691     71.63382     71.63382    143.26764 
   18100    72085     300.1267   -225.87882   -7994024.3    64487.838   -7929536.5    735371.42    1.1126554    71.640551    71.640551     143.2811 
   18200    72085     298.7689    955.77379   -7993869.1    64196.089     -7929673    735916.59    1.1118312     71.65825     71.65825     143.3165 
   18300    72085    299.37366    260.55316   -7993737.1    64326.033   -7929411.1    735658.51    1.1122212    71.649873    71.649873    143.29975 
   18400    72085     301.7774    777.33608   -7993749.7    64842.521   -7928907.2    735170.22    1.1129599    71.634017    71.634017    143.26803 
   18500    72085    300.53279   -248.71571   -7993466.5    64575.093   -7928891.4    735330.34    1.1127176    71.639217    71.639217    143.27843 
   18600    72085    299.17903   -1953.7871   -7993670.7    64284.213   -7929386.5    734739.91    1.1136118    71.620038    71.620038    143.24008 
   18700    72085    298.64153    2.2001039   -7994109.7    64168.721     -7929941     734497.6    1.1139792    71.612163    71.612163    143.22433 
   18800    72085    300.20129   -136.37767   -7994445.2    64503.864   -7929941.3    734452.64    1.1140473    71.610703    71.610703    143.22141 
   18900    72085    300.68055   -309.46595   -7994163.7    64606.843   -7929556.8    734390.99    1.1141409    71.608699    71.608699     143.2174 
   19000    72085    299.59554     -172.755   -7993673.7    64373.707     -7929300    734430.88    1.1140803    71.609995    71.609995    143.21999 
   19100    72085    301.21885    769.04365   -7993825.1    64722.506   -7929102.6    733940.95     1.114824    71.594068    71.594068    143.18814 
   19200    72085    301.28184    1549.6859   -7994053.2    64736.042   -7929317.1    733352.39    1.1157187    71.574926    71.574926    143.14985 
   19300    72085    299.55159    -481.9464   -7994185.5    64364.264   -7929821.3    733312.04    1.1157801    71.573613    71.573613    143.14723 
   19400    72085    298.82864    1050.8962   -7994215.6    64208.926   -7930006.7    732915.67    1.1163836    71.560715    71.560715    143.12143 
   19500    72085    300.41908    530.65445   -7994429.9    64550.661   -7929879.2    732532.68    1.1169672    71.548248    71.548248     143.0965 
   19600    72085    299.20181   -33.264986   -7994143.7    64289.107   -7929854.6    731952.03    1.1178533    71.529338    71.529338    143.05868 
   19700    72085     299.3109    314.90467   -7993951.5    64312.547     -7929639    731773.01    1.1181268    71.523506    71.523506    143.04701 
   19800    72085    301.31553   -603.28822   -7994258.2     64743.28   -7929514.9    731974.47    1.1178191    71.530069    71.530069    143.06014 
   19900    72085     298.7936    71.988462   -7993962.3    64201.395   -7929760.9    731737.05    1.1181817    71.522335    71.522335    143.04467 
   20000    72085    298.87872   -17.272077   -7994028.4    64219.685   -7929808.7    731617.24    1.1183649    71.518431    71.518431    143.03686 
   20100    72085    299.22662    21.141195   -7993994.5    64294.439   -7929700.1    731558.24    1.1184551    71.516508    71.516508    143.03302 
   20200    72085    301.49191   -176.72247   -7994488.6    64781.179   -7929707.4    731286.56    1.1188706    71.507654    71.507654    143.01531 
   20300    72085    299.88023    544.46572   -7994467.9    64434.879     -7930033    730682.07    1.1197962    71.487946    71.487946    142.97589 
   20400    72085     297.8943    663.76201   -7994335.5    64008.165   -7930327.4    729827.18    1.1211079    71.460055    71.460055    142.92011 
   20500    72085     298.5451   -1507.5575   -7994335.3    64148.001   -7930187.3    729254.51    1.1219883    71.441359    71.441359    142.88272 
   20600    72085    300.45389    1246.0742   -7994296.5     64558.14   -7929738.4    728575.06    1.1230346    71.419165    71.419165    142.83833 
   20700    72085    300.49417   -1182.1557   -7994191.3    64566.794   -7929624.5    729056.08    1.1222937    71.434879    71.434879    142.86976 
   20800    72085    300.43714     735.4734   -7994439.5    64554.542     -7929885    728582.16    1.1230237    71.419397    71.419397    142.83879 
   20900    72085     298.7678    249.72864   -7994449.7    64195.852   -7930253.8    728902.31    1.1225304    71.429856    71.429856    142.85971 
   21000    72085    298.60161   -386.57215   -7994459.2    64160.144     -7930299    728696.41    1.1228476     71.42313     71.42313    142.84626 
   21100    72085    300.52825   -420.88931   -7994547.3    64574.117   -7929973.2    728330.08    1.1234124    71.411159    71.411159    142.82232 
   21200    72085    300.71393    305.85199   -7994350.2    64614.015   -7929736.2    728315.94    1.1234342    71.410697    71.410697    142.82139 
   21300    72085    301.47951   -298.46344   -7994625.2    64778.514   -7929846.7    728050.68    1.1238435    71.402027    71.402027    142.80405 
   21400    72085    299.21762   -27.166584   -7994629.5    64292.504     -7930337     728041.7    1.1238573    71.401733    71.401733    142.80347 
   21500    72085    299.35296    -1426.375   -7994957.4    64321.584   -7930635.8    727149.02     1.125237    71.372538    71.372538    142.74508 
   21600    72085    298.39528   -323.00541   -7994559.8    64115.809     -7930444    725971.01    1.1270629    71.333975    71.333975    142.66795 
   21700    72085    300.91706    49.611163   -7994504.2    64657.661   -7929846.5    725281.23    1.1281348    71.311375    71.311375    142.62275 
   21800    72085    302.35964   0.15197603   -7994492.9    64967.625   -7929525.3    725084.83    1.1284404    71.304938    71.304938    142.60988 
   21900    72085    300.91547   -12.322556   -7994578.7    64657.319   -7929921.4    725076.37    1.1284536    71.304661    71.304661    142.60932 
   22000    72085    299.96725    1193.7694   -7995050.3    64453.577   -7930596.7    725102.02    1.1284136    71.305502    71.305502      142.611 
   22100    72085    299.01924    1240.9371   -7995433.6    64249.879   -7931183.7    724926.51    1.1286868    71.299748    71.299748     142.5995 
   22200    72085    297.48902    2041.8056   -7995222.3    63921.083   -7931301.2    724452.23    1.1294258    71.284195    71.284195    142.56839 
   22300    72085    299.63991   -1064.6894   -7995093.1    64383.242   -7930709.8    724580.09    1.1292265    71.288389    71.288389    142.57678 
   22400    72085    299.98287    389.02984   -7994569.9    64456.933   -7930112.9    724185.19    1.1298422    71.275436    71.275436    142.55087 
   22500    72085    300.02136   -1839.8761   -7994387.1    64465.203   -7929921.9    724710.62    1.1290231     71.29267     71.29267    142.58534 
   22600    72085    300.86815    480.65708   -7994651.6    64647.151   -7930004.5    723668.82    1.1306484    71.258491    71.258491    142.51698 
   22700    72085    299.71951   -477.35743   -7994754.8    64400.345   -7930354.4    723644.43    1.1306865     71.25769     71.25769    142.51538 
   22800    72085    298.54728    -106.1021   -7994685.8     64148.47   -7930537.3    723656.56    1.1306676    71.258089    71.258089    142.51618 
   22900    72085    298.94939    9.3763815   -7994708.5    64234.871   -7930473.6    723623.58    1.1307191    71.257006    71.257006    142.51401 
   23000    72085    301.49325   -623.57033   -7994969.3    64781.466   -7930187.9    724194.82    1.1298272    71.275752    71.275752     142.5515 
   23100    72085    299.78621    1684.9717   -7994473.8    64414.676   -7930059.2    724138.79    1.1299146    71.273913    71.273913    142.54783 
   23200    72085    301.64341   -741.44324   -7994905.1    64813.731   -7930091.3    724522.97    1.1293155    71.286516    71.286516    142.57303 
   23300    72085    299.18901   -574.22074   -7994667.1    64286.356   -7930380.8    723993.25    1.1301418    71.269138    71.269138    142.53828 
   23400    72085    300.88509    617.14549   -7995171.1    64650.792   -7930520.3    723561.74    1.1308157    71.254976    71.254976    142.50995 
   23500    72085    301.07006    178.42654   -7995343.3    64690.537   -7930652.7    722706.33    1.1321542    71.226885    71.226885    142.45377 
   23600    72085    299.43919    43.124197   -7995239.8    64340.113   -7930899.7    722355.39    1.1327042    71.215355    71.215355    142.43071 
   23700    72085    299.96346    647.15948     -7995625    64452.762   -7931172.2    721257.85    1.1344279    71.179268    71.179268    142.35854 
   23800    72085    299.37959   -610.62095   -7995455.1    64327.306   -7931127.8    721547.31    1.1339728    71.188789    71.188789    142.37758 
   23900    72085    298.45745    805.11927   -7995074.2    64129.167     -7930945    720804.45    1.1351415     71.16435     71.16435     142.3287 
   24000    72085    299.45969    1222.3315   -7995112.5    64344.518   -7930767.9    720696.41    1.1353116    71.160794    71.160794    142.32159 
   24100    72085    300.92373    296.00255   -7995333.6    64659.094   -7930674.6    720549.21    1.1355436    71.155949    71.155949     142.3119 
   24200    72085    298.49734   -410.87716   -7994948.7    64137.739   -7930810.9    720656.92    1.1353738    71.159495    71.159495    142.31899 
   24300    72085    300.49897   -319.15449   -7995453.2    64567.827   -7930885.4    720162.46    1.1361534    71.143216    71.143216    142.28643 
   24400    72085    299.65413   -1327.5103   -7995395.5    64386.298   -7931009.2    719605.81    1.1370323    71.124881    71.124881    142.24976 
   24500    72085    300.11505    154.96742   -7995671.9    64485.333   -7931186.6    718763.15    1.1383653    71.097108    71.097108    142.19422 
   24600    72085    299.23443    33.079665   -7995558.8    64296.117   -7931262.7    718693.84    1.1384751    71.094823    71.094823    142.18965 
   24700    72085    299.92027   -1128.1267   -7995411.8    64443.482   -7930968.3     718380.8    1.1389712    71.084499    71.084499      142.169 
   24800    72085    300.43291   -896.83524   -7995276.9    64553.632   -7930723.3    718532.28     1.138731    71.089495    71.089495    142.17899 
   24900    72085     300.7442   -922.08896   -7995355.2    64620.518   -7930734.7    718417.46     1.138913    71.085708    71.085708    142.17142 
   25000    72085    301.05044    470.45034   -7995602.6    64686.319   -7930916.3    718132.84    1.1393644    71.076319    71.076319    142.15264 
   25100    72085    298.17499     365.5328   -7995327.9    64068.475   -7931259.4    719145.04    1.1377608    71.109698    71.109698     142.2194 
   25200    72085    299.20422    77.980908   -7995570.2    64289.625   -7931280.6    718033.73    1.1395217    71.073049    71.073049     142.1461 
   25300    72085    301.00511    373.65982   -7995769.9    64676.579   -7931093.3    717366.17    1.1405821    71.051017    71.051017    142.10203 
   25400    72085    301.15115   -214.45328     -7995563    64707.959   -7930855.1     717167.9    1.1408974    71.044471    71.044471    142.08894 
   25500    72085    301.06166    600.91903   -7995543.3    64688.731   -7930854.5    716748.71    1.1415647    71.030626    71.030626    142.06125 
   25600    72085    299.48511    707.12394   -7995419.3     64349.98   -7931069.3    716756.26    1.1415526    71.030875    71.030875    142.06175 
   25700    72085    300.49228   -408.39097   -7995831.7    64566.389   -7931265.3    716473.69    1.1420029     71.02154     71.02154    142.04308 
   25800    72085     298.8354     -495.374   -7995678.7    64210.378   -7931468.3    716143.81    1.1425289    71.010638    71.010638    142.02128 
   25900    72085    299.27207   -569.91679   -7995613.8    64304.205   -7931309.6    716084.76    1.1426231    71.008686    71.008686    142.01737 
   26000    72085    301.24613    116.18957   -7995847.7    64728.368   -7931119.3    716064.89    1.1426548     71.00803     71.00803    142.01606 
   26100    72085    299.91545    2139.0215     -7995559    64442.446   -7931116.6    716011.49    1.1427401    71.006264    71.006264    142.01253 
   26200    72085    299.97875   -1307.4344   -7995544.2    64456.048   -7931088.2    716266.75    1.1423328    71.014701    71.014701     142.0294 
   26300    72085    300.65606    238.46301   -7995571.7     64601.58   -7930970.1    715913.79     1.142896    71.003035    71.003035    142.00607 
   26400    72085    300.28823    47.245078     -7995536    64522.545   -7931013.5    716259.75     1.142344     71.01447     71.01447    142.02894 
   26500    72085    300.80383   -656.75401   -7995694.1    64633.331   -7931060.8    715720.62    1.1432045    70.996648    70.996648     141.9933 
   26600    72085    300.09185    823.28587   -7995724.4    64480.349     -7931244    714710.98    1.1448194    70.963248    70.963248     141.9265 
   26700    72085    301.07834   -813.04639   -7996227.1    64692.315   -7931534.8    715156.05    1.1441069    70.977976    70.977976    141.95595 
   26800    72085    299.37308    395.04317   -7996154.4    64325.909   -7931828.5     714204.5    1.1456313    70.946482    70.946482    141.89296 
   26900    72085    300.16975      335.253   -7996220.1    64497.087     -7931723    713865.03    1.1461761    70.935239    70.935239    141.87048 
   27000    72085    300.39166    655.17571   -7995835.3     64544.77   -7931290.5    713234.78    1.1471889    70.914357    70.914357    141.82871 
   27100    72085    300.79292    266.29995   -7995562.3    64630.987   -7930931.3    713072.85    1.1474494     70.90899     70.90899    141.81798 
   27200    72085    300.99367   -538.29772     -7995629    64674.122   -7930954.9     713241.8    1.1471776     70.91459     70.91459    141.82918 
   27300    72085     299.0316     776.0098   -7995572.8    64252.535   -7931320.3    712932.73    1.1476749    70.904345    70.904345    141.80869 
   27400    72085    298.52937    25.477863     -7995743    64144.621   -7931598.4     713575.6     1.146641    70.925651    70.925651     141.8513 
   27500    72085    298.73047   -563.68165   -7995818.6    64187.832   -7931630.8    713891.88     1.146133    70.936129    70.936129    141.87226 
   27600    72085     300.1093   -694.66306   -7995962.4      64484.1   -7931478.3    714032.37    1.1459075    70.940781    70.940781    141.88156 
   27700    72085    301.96419    1885.1914   -7996078.6    64882.655   -7931195.9    713796.26    1.1462865    70.932961    70.932961    141.86592 
   27800    72085    300.43485    326.23833   -7995864.4    64554.048   -7931310.3    713914.23    1.1460971    70.936869    70.936869    141.87374 
   27900    72085     299.7152   -1256.6536   -7996049.1    64399.418   -7931649.7    713533.88     1.146708    70.924269    70.924269    141.84854 
   28000    72085    298.83025     387.1462   -7996139.9    64209.271   -7931930.6    713064.46    1.1474629    70.908712    70.908712    141.81742 
   28100    72085    298.33508    99.800138   -7996150.7    64102.875   -7932047.8    713361.44    1.1469852    70.918555    70.918555    141.83711 
   28200    72085    298.67302   -298.27076     -7996089    64175.487   -7931913.5    712633.48    1.1481568    70.894424    70.894424    141.78885 
   28300    72085    298.97001   -1081.7202   -7995692.3      64239.3     -7931453    712328.68    1.1486481    70.884315    70.884315    141.76863 
   28400    72085    301.01921   -1044.9473   -7995688.7    64679.609   -7931009.1    712368.14    1.1485845    70.885624    70.885624    141.77125 
   28500    72085    299.77475    557.57723     -7995547    64412.215   -7931134.7    711761.07    1.1495641    70.865482    70.865482    141.73096 
   28600    72085     299.7063    513.06632   -7995873.3    64397.507   -7931475.8     711997.4    1.1491826    70.873324    70.873324    141.74665 
   28700    72085     299.8836    1492.6712   -7996159.7    64435.604   -7931724.1    712209.44    1.1488404    70.880359    70.880359    141.76072 
   28800    72085     299.7131   -107.62228   -7996085.5    64398.968   -7931686.5    711996.08    1.1491847    70.873281    70.873281    141.74656 
   28900    72085     300.9219    64.440491   -7996383.5    64658.701   -7931724.8    711646.83    1.1497487     70.86169     70.86169    141.72338 
   29000    72085    299.60403   -454.31097   -7996182.9    64375.533   -7931807.3    711016.47     1.150768    70.840762    70.840762    141.68152 
   29100    72085    300.25153    675.34971   -7996231.5    64514.659   -7931716.8    710519.93    1.1515722    70.824267    70.824267    141.64853 
   29200    72085    300.35694   -227.54728   -7996298.8    64537.309   -7931761.5    709791.27    1.1527544    70.800048    70.800048     141.6001 
   29300    72085    299.52019    514.64114   -7996095.6    64357.518     -7931738    709558.54    1.1531325    70.792309    70.792309    141.58462 
   29400    72085     300.6771    297.23591   -7996103.7    64606.101   -7931497.6     709590.8    1.1530801    70.793382    70.793382    141.58676 
   29500    72085     300.0811    673.05125   -7995862.2    64478.039   -7931384.2    709725.02     1.152862    70.797845    70.797845    141.59569 
   29600    72085    299.85623    594.70884   -7995924.1    64429.722   -7931494.4    709835.76    1.1526821    70.801527    70.801527    141.60305 
   29700    72085    300.94537    920.83563   -7996451.5    64663.743   -7931787.7     709983.7     1.152442    70.806446    70.806446    141.61289 
   29800    72085    299.50609   -1101.8821   -7996597.5    64354.487     -7932243    709805.79    1.1527308    70.800531    70.800531    141.60106 
   29900    72085    298.03611   -572.10932   -7996293.3    64038.635   -7932254.7    709697.54    1.1529067    70.796931    70.796931    141.59386 
   30000    72085    299.83893   -658.17245   -7996180.9    64426.005   -7931754.9    709810.03    1.1527239    70.800672    70.800672    141.60134 
   30100    72085    300.70097    101.95592   -7995965.5     64611.23   -7931354.3    710439.42    1.1517027    70.821592    70.821592    141.64318 
   30200    72085    300.57596    1113.8995   -7996008.9    64584.369   -7931424.6    710842.28      1.15105    70.834976    70.834976    141.66995 
   30300    72085    299.13234   -773.99457   -7996200.5     64274.18   -7931926.3     710585.2    1.1514664    70.826436    70.826436    141.65287 
   30400    72085    299.21803    1248.4687   -7996545.7    64292.592   -7932253.1    709779.65    1.1527733    70.799662    70.799662    141.59932 
   30500    72085    299.27905   -682.33044   -7996430.3    64305.703   -7932124.6    709297.06    1.1535576    70.783612    70.783612    141.56722 
   30600    72085    300.70257    653.89359   -7996452.1    64611.574   -7931840.5    708508.76    1.1548411     70.75738     70.75738    141.51476 
   30700    72085     301.3987    -17.56233   -7996310.1     64761.15     -7931549    708397.51    1.1550224    70.753676    70.753676    141.50735 
   30800    72085    300.10284   -56.844777   -7995900.4    64482.711   -7931417.7    707723.36    1.1561227    70.731225    70.731225    141.46245 
   30900    72085    300.10512    429.04263   -7996032.5      64483.2   -7931549.3    707681.68    1.1561907    70.729836    70.729836    141.45967 
   31000    72085     299.4821   -109.88409   -7996131.4    64349.333     -7931782    708254.78    1.1552552    70.748924    70.748924    141.49785 
   31100    72085    300.18838    211.25271   -7996463.4     64501.09   -7931962.3    707806.61    1.1559867    70.733998    70.733998      141.468 
   31200    72085    299.74217    -281.1866   -7996577.5    64405.214   -7932172.3    707806.93    1.1559862    70.734009    70.734009    141.46802 
   31300    72085    297.97791     1118.215   -7996372.4     64026.13   -7932346.2    707466.62    1.1565422    70.722671    70.722671    141.44534 
   31400    72085    299.18861   -354.09325     -7996321    64286.272   -7932034.7    707743.36      1.15609    70.731891    70.731891    141.46378 
   31500    72085    300.51567   -916.85457   -7996235.1    64571.414   -7931663.6    707283.07    1.1568424    70.716554    70.716554    141.43311 
   31600    72085    300.42202   -452.43301   -7996266.3    64551.292     -7931715    707042.11    1.1572366    70.708522    70.708522    141.41704 
   31700    72085    299.61137    822.96701   -7996275.7     64377.11   -7931898.6    706961.06    1.1573693     70.70582     70.70582    141.41164 
   31800    72085    299.43286    940.64509   -7996217.2    64338.754   -7931878.4    706603.28    1.1579553    70.693891    70.693891    141.38778 
   31900    72085    299.42714    1217.1717   -7996146.7    64337.525   -7931809.2    706301.04    1.1584508     70.68381     70.68381    141.36762 
   32000    72085    301.50768   -1170.0102   -7996517.7    64784.566   -7931733.1    706154.44    1.1586913    70.678919    70.678919    141.35784 
   32100    72085    299.65378    964.43333   -7996421.6    64386.221   -7932035.4    706527.27    1.1580799    70.691356    70.691356    141.38271 
   32200    72085    299.23621     1059.796   -7996533.5    64296.499     -7932237    705952.65    1.1590225    70.672186    70.672186    141.34437 
   32300    72085    299.12203    1083.2505   -7996438.1    64271.965   -7932166.1    706181.03    1.1586477    70.679806    70.679806    141.35961 
   32400    72085    300.72031    1093.6844   -7996690.1    64615.386   -7932074.7    706586.44    1.1579829    70.693329    70.693329    141.38666 
   32500    72085    300.19725   -872.63682   -7996642.9    64502.997   -7932139.9    706249.77    1.1585349      70.6821      70.6821     141.3642 
   32600    72085    300.43998    166.96074   -7996608.6    64555.152   -7932053.5    706749.84    1.1577152    70.698778    70.698778    141.39756 
   32700    72085    301.22659    869.79009   -7996720.8     64724.17   -7931996.6    706759.33    1.1576996    70.699095    70.699095    141.39819 
   32800    72085    301.36124   -94.458679   -7996779.1    64753.102     -7932026    707354.16    1.1567261    70.718923    70.718923    141.43785 
   32900    72085    300.11908    481.28448   -7996644.1      64486.2   -7932157.9    707748.56    1.1560815    70.732064    70.732064    141.46413 
   33000    72085    299.00501    1655.1285   -7996585.6    64246.821   -7932338.7    707868.68    1.1558853    70.736066    70.736066    141.47213 
   33100    72085    297.89839    484.27501   -7996271.3    64009.044   -7932262.2    708305.64    1.1551722    70.750617    70.750617    141.50123 
   33200    72085    298.85569    138.93686   -7996258.6    64214.737   -7932043.8    707347.08    1.1567377    70.718687    70.718687    141.43737 
   33300    72085    299.42321    -215.0292   -7996125.2     64336.68   -7931788.6    707285.94    1.1568376     70.71665     70.71665     141.4333 
   33400    72085    300.66354    671.83143   -7996306.6    64603.187   -7931703.4    707106.17    1.1571318    70.710658    70.710658    141.42132 
   33500    72085    300.06055    1294.3574   -7996514.2    64473.624   -7932040.6    706646.24    1.1578849    70.695323    70.695323    141.39065 
   33600    72085    298.95101    1056.8008   -7996728.7    64235.218   -7932493.4    706271.98    1.1584985     70.68284     70.68284    141.36568 
   33700    72085    298.28478    1096.2557   -7996637.1    64092.066     -7932545    705665.55     1.159494    70.662605    70.662605    141.32521 
   33800    72085    300.65102   -111.51219   -7996617.3    64600.496   -7932016.8    706072.37     1.158826    70.676181    70.676181    141.35236 
   33900    72085    301.11607    419.33198   -7996366.1    64700.422   -7931665.7    706027.92    1.1588989    70.674698    70.674698     141.3494 
   34000    72085    301.06338    396.83579   -7996545.3    64689.101   -7931856.2    705977.74    1.1589813    70.673023    70.673023    141.34605 
   34100    72085    299.19938   -253.95885   -7996631.2    64288.586   -7932342.6     706272.6    1.1584975    70.682861    70.682861    141.36572 
   34200    72085    299.82677   -1739.3912   -7996897.4    64423.392     -7932474    706622.14    1.1579244     70.69452     70.69452    141.38904 
   34300    72085    299.45706    425.29251   -7996571.4    64343.953   -7932227.5    706528.18    1.1580784    70.691386    70.691386    141.38277 
   34400    72085    300.95885    340.73606     -7996361    64666.641   -7931694.3    707105.49    1.1571329    70.710635    70.710635    141.42127 
   34500    72085     300.9798    20.071409   -7996125.1    64671.142   -7931453.9    707009.02    1.1572908    70.707419    70.707419    141.41484 
   34600    72085    300.27632   -644.26581   -7996222.7    64519.987   -7931702.7    706926.85    1.1574253     70.70468     70.70468    141.40936 
   34700    72085    299.96756    -551.5248   -7996698.5    64453.644   -7932244.9    707232.69    1.1569248    70.714875    70.714875    141.42975 
   34800    72085    299.52156    1936.4935   -7996977.8    64357.812   -7932619.9    707046.54    1.1572294     70.70867     70.70867    141.41734 
   34900    72085    298.73395   -885.58517   -7996725.8     64188.58   -7932537.2    706495.11    1.1581326    70.690283    70.690283    141.38057 
   35000    72085    299.04895    96.880668   -7996382.7    64256.262   -7932126.4    705610.45    1.1595846    70.660765    70.660765    141.32153 
   35100    72085    302.20456   -169.41845   -7996654.2    64934.305   -7931719.9    705498.78    1.1597681    70.657038    70.657038    141.31408 
   35200    72085     299.7401   -276.45806   -7996286.8    64404.769     -7931882    705808.42    1.1592593    70.667373    70.667373    141.33475 
   35300    72085    300.99252   -376.55976   -7996665.2    64673.876   -7931991.4     705519.4    1.1597343    70.657726    70.657726    141.31545 
   35400    72085    299.17374   -1597.8945   -7996346.4    64283.076   -7932063.4    705245.53    1.1601846    70.648582    70.648582    141.29716 
   35500    72085    300.76964   -62.738742   -7996585.2    64625.985   -7931959.2    705603.78    1.1595956    70.660543    70.660543    141.32109 
   35600    72085    301.01486    1506.0933     -7996732    64678.675   -7932053.3    704980.11    1.1606214    70.639718    70.639718    141.27944 
   35700    72085    300.92132   -538.23501     -7996893    64658.576   -7932234.5    705029.49    1.1605401    70.641367    70.641367    141.28273 
   35800    72085    299.26795    251.58651   -7996754.4    64303.318   -7932451.1    704257.88    1.1618117    70.615587    70.615587    141.23117 
   35900    72085    299.96116   -110.35754   -7996889.7    64452.267   -7932437.4    704498.19    1.1614153    70.623618    70.623618    141.24724 
   36000    72085    299.40875   -954.48752   -7996695.4    64333.573   -7932361.8    704603.94     1.161241    70.627151    70.627151     141.2543 
   36100    72085    300.78011   -97.499707   -7996702.2    64628.235   -7932073.9    703796.64     1.162573    70.600168    70.600168    141.20034 
   36200    72085    300.80665    899.82409   -7996470.6    64633.937   -7931836.6    703534.25    1.1630067    70.591393    70.591393    141.18279 
   36300    72085    300.78542   -1155.9086   -7996581.7    64629.375   -7931952.3    703687.25    1.1627538     70.59651     70.59651    141.19302 
   36400    72085    300.20274   -1942.3631   -7996856.4    64504.176   -7932352.2    704167.67    1.1619605    70.612572    70.612572    141.22514 
   36500    72085    297.45495   -121.99415   -7996551.4    63913.762   -7932637.6     703633.6    1.1628424    70.594715    70.594715    141.18943 
   36600    72085    300.48338    438.88156   -7996968.6    64564.478   -7932404.1    702910.83    1.1640381    70.570536    70.570536    141.14107 
   36700    72085    300.04267   -341.59764     -7996767    64469.783   -7932297.2    702287.51    1.1650713    70.549669    70.549669    141.09934 
   36800    72085    299.68268   -1093.2383   -7996660.6    64392.431   -7932268.1     702089.1    1.1654005    70.543025    70.543025    141.08605 
   36900    72085     300.5869   -592.49784   -7996860.4     64586.72   -7932273.7    702042.81    1.1654774    70.541474    70.541474    141.08295 
   37000    72085    300.84815    179.33053   -7996945.7    64642.855   -7932302.8    701954.14    1.1656246    70.538504    70.538504    141.07701 
   37100    72085    300.51547    278.90566   -7996862.8    64571.372   -7932291.4    701846.88    1.1658027    70.534911    70.534911    141.06982 
   37200    72085    298.88858   -118.58349   -7996609.8    64221.805     -7932388    702208.67    1.1652021    70.547029    70.547029    141.09406 
   37300    72085     299.3495    129.65197   -7996617.6    64320.842   -7932296.7    702319.62     1.165018    70.550745    70.550745    141.10149 
   37400    72085    300.84284    509.46936   -7996756.9    64641.714   -7932115.2    702077.89    1.1654191    70.542649    70.542649     141.0853 
   37500    72085    300.64921    479.26552   -7996800.7    64600.108   -7932200.6    701486.26     1.166402    70.522829    70.522829    141.04566 
   37600    72085    299.92186    -1519.655   -7996992.2    64443.824   -7932548.4    700948.92    1.1672962    70.504817    70.504817    141.00963 
   37700    72085    299.70089    766.74253   -7997067.7    64396.344   -7932671.3    701272.88     1.166757    70.515678    70.515678    141.03136 
   37800    72085    298.59791   -661.26713   -7996710.9    64159.348   -7932551.5    701380.72    1.1665776    70.519292    70.519292    141.03858 
   37900    72085    299.69898     301.4473   -7996743.9    64395.935     -7932348    701352.02    1.1666253     70.51833     70.51833    141.03666 
   38000    72085    301.14938   -629.02114   -7996784.4    64707.579   -7932076.8    701525.87    1.1663362    70.524156    70.524156    141.04831 
   38100    72085    300.96149    372.17447   -7996813.3    64667.207   -7932146.1    701601.43    1.1662106    70.526688    70.526688    141.05338 
   38200    72085    299.18513   -621.27274   -7996903.9    64285.523   -7932618.4    701958.41    1.1656175    70.538647    70.538647    141.07729 
   38300    72085    299.05108   -328.88691   -7997084.6     64256.72   -7932827.9    701734.33    1.1659897    70.531141    70.531141    141.06228 
   38400    72085    300.26078    120.15767   -7997315.5    64516.648   -7932798.9    701624.75    1.1661718    70.527469    70.527469    141.05494 
   38500    72085    301.44574   -1418.0591   -7997395.2    64771.258   -7932623.9    701571.38    1.1662605    70.525681    70.525681    141.05136 
   38600    72085    299.25044    -713.4338   -7996866.6    64299.556   -7932567.1    701062.45    1.1671072    70.508624    70.508624    141.01725 
   38700    72085     300.0737    276.48088   -7997084.5    64476.449   -7932608.1     701050.8    1.1671266    70.508233    70.508233    141.01647 
   38800    72085    299.45134   -656.32472   -7996973.1    64342.723   -7932630.3    701427.13    1.1665004    70.520847    70.520847    141.04169 
   38900    72085    299.97974    569.55633   -7996965.6    64456.261   -7932509.4    701009.05    1.1671961    70.506833    70.506833    141.01367 
   39000    72085    300.82413   -1016.6348   -7997218.3    64637.694   -7932580.6    701642.04    1.1661431    70.528049    70.528049     141.0561 
   39100    72085    300.11335    280.59977   -7997322.9    64484.969   -7932837.9    700582.27    1.1679071    70.492522    70.492522    140.98504 
   39200    72085    300.30996    970.64238   -7997450.8    64527.213   -7932923.5    700106.45    1.1687009    70.476559    70.476559    140.95312 
   39300    72085    298.48367   -301.87216   -7996990.6    64134.801   -7932855.8     699808.3    1.1691988    70.466554    70.466554    140.93311 
   39400    72085    299.73207    740.93346   -7997131.7    64403.044   -7932728.6    700254.68    1.1684535    70.481533    70.481533    140.96307 
   39500    72085    299.31909   -242.38585   -7996951.2    64314.306   -7932636.9     700766.1    1.1676007    70.498687    70.498687    140.99737 
   39600    72085    300.05933   -217.97168   -7997024.2    64473.362   -7932550.9    700947.95    1.1672978    70.504785    70.504785    141.00957 
   39700    72085    300.04088   -1041.7416   -7996997.4    64469.398     -7932528    700871.01     1.167426    70.502205    70.502205    141.00441 
   39800    72085    299.50805    728.00612   -7996969.8    64354.909   -7932614.9    701472.73    1.1664245    70.522376    70.522376    141.04475 
   39900    72085    300.43005    12.749721   -7997175.8    64553.018   -7932622.8     701329.3    1.1666631    70.517569    70.517569    141.03514 
   40000    72085    297.91727   -125.51126   -7996796.4      64013.1   -7932783.3    700808.33    1.1675304    70.500103    70.500103    141.00021 
   40100    72085    299.90219   -598.63226   -7997175.2    64439.597   -7932735.6       700785    1.1675692    70.499321    70.499321    140.99864 
   40200    72085     300.0494   -17.936324   -7997220.4    64471.228   -7932749.2    699755.16    1.1692876     70.46477     70.46477    140.92954 
   40300    72085    298.40439   -142.90096   -7996839.3    64117.767   -7932721.5    699466.47    1.1697702    70.455078    70.455078    140.91016 
   40400    72085    301.64242    -247.8461   -7997311.5    64813.519     -7932498    699540.12     1.169647    70.457551    70.457551     140.9151 
   40500    72085    300.86149   -216.68459   -7997192.6    64645.721   -7932546.9     698959.9     1.170618    70.438066    70.438066    140.87613 
   40600    72085    301.21502   -698.47741   -7997341.8    64721.683   -7932620.1    699276.86    1.1700873    70.448712    70.448712    140.89742 
   40700    72085    300.55606   -928.14606   -7997295.3    64580.093   -7932715.2    699525.21    1.1696719     70.45705     70.45705     140.9141 
   40800    72085    300.47044    1270.0361   -7997424.2    64561.696   -7932862.5    699614.41    1.1695228    70.460045    70.460045    140.92009 
   40900    72085    298.70324    20.451934   -7997265.3    64181.981   -7933083.3    699870.01    1.1690957    70.468625    70.468625    140.93725 
   41000    72085    299.59892    656.57579   -7997366.8    64374.435   -7932992.3     699885.2    1.1690703    70.469135    70.469135    140.93827 
   41100    72085    299.85265   -1433.9489   -7997025.2    64428.953   -7932596.2    700363.69    1.1682716     70.48519     70.48519    140.97038 
   41200    72085    300.40706    -351.4019   -7996917.1    64548.078     -7932369    700668.53    1.1677633    70.495415    70.495415    140.99083 
   41300    72085    300.01694   -623.66202   -7997020.1    64464.254   -7932555.8    700648.66    1.1677964    70.494749    70.494749     140.9895 
   41400    72085    299.26496   -856.21495   -7997224.8    64302.676   -7932922.2    700256.81    1.1684499    70.481604    70.481604    140.96321 
   41500    72085    300.07123   -80.135722     -7997641    64475.919     -7933165    700208.39    1.1685307     70.47998     70.47998    140.95996 
   41600    72085    299.14586    1199.7644   -7997457.1    64277.086     -7933180    699818.12    1.1691824    70.466883    70.466883    140.93377 
   41700    72085    300.26021   -959.75742     -7997367    64516.524   -7932850.4    699139.19    1.1703178    70.444088    70.444088    140.88818 
   41800    72085    300.93065   -659.70002   -7997234.4    64660.581   -7932573.8    699021.14    1.1705154    70.440123    70.440123    140.88025 
   41900    72085    299.80766    536.16499   -7997049.5    64419.285   -7932630.3       698583    1.1712495    70.425403    70.425403    140.85081 
   42000    72085    299.06295   -141.93891   -7997168.3    64259.271     -7932909    698762.99    1.1709478    70.431451    70.431451     140.8629 
   42100    72085    299.36291    367.41719   -7997469.5    64323.722   -7933145.8    698525.37    1.1713462    70.423466    70.423466    140.84693 
   42200    72085     298.7853   -514.22055   -7997431.9    64199.612   -7933232.3    698496.57    1.1713945    70.422498    70.422498      140.845 
   42300    72085    299.50175   -337.76244     -7997557    64353.556   -7933203.5     698323.2    1.1716853    70.416671    70.416671    140.83334 
   42400    72085    299.60754     776.0719     -7997411    64376.286   -7933034.8    697743.66    1.1726585    70.397186    70.397186    140.79437 
   42500    72085    299.49765   -140.46425   -7997301.9    64352.674   -7932949.2    697835.87    1.1725035    70.400287    70.400287    140.80057 
   42600    72085    302.04431   -1120.2859   -7997688.7    64899.873   -7932788.9     697745.3    1.1726557    70.397241    70.397241    140.79448 
   42700    72085    300.45361   -776.84369   -7997498.8    64558.079   -7932940.8    697668.89    1.1727841    70.394672    70.394672    140.78934 
   42800    72085    300.10775    -1035.289     -7997637    64483.766   -7933153.2    698081.81    1.1720904    70.408557    70.408557    140.81711 
   42900    72085    299.48856   -1534.0697   -7997546.9    64350.722   -7933196.2    698294.38    1.1717336    70.415702    70.415702     140.8314 
   43000    72085      299.718   -324.60226   -7997480.5     64400.02   -7933080.5    698361.14    1.1716216    70.417947    70.417947    140.83589 
   43100    72085    300.46748    271.98296   -7997440.7    64561.061   -7932879.7    698049.78    1.1721442     70.40748     70.40748    140.81496 
   43200    72085    301.67384   -161.18612   -7997343.5    64820.269   -7932523.2    698491.45     1.171403    70.422326    70.422326    140.84465 
   43300    72085    300.77842    395.11107   -7997286.4    64627.872   -7932658.5    698263.13    1.1717861    70.414652    70.414652     140.8293 
   43400    72085    299.68749    1369.6186   -7997439.5    64393.466   -7933046.1    698512.27    1.1713681    70.423026    70.423026    140.84605 
   43500    72085     298.8913   -666.83832   -7997542.8    64222.389   -7933320.4    698439.83    1.1714896    70.420591    70.420591    140.84118 
   43600    72085    298.83831    594.61101   -7997674.6    64211.002   -7933463.6     698189.4    1.1719098    70.412174    70.412174    140.82435 
   43700    72085    299.10081   -854.36825   -7997597.4    64267.405     -7933330    698674.66    1.1710959    70.428483    70.428483    140.85697 
   43800    72085    300.17999    329.84089   -7997509.6    64499.288   -7933010.3    698423.06    1.1715177    70.420028    70.420028    140.84006 
   43900    72085    300.73311    449.51861   -7997329.8    64618.135   -7932711.6    698932.07    1.1706646    70.437131    70.437131    140.87426 
   44000    72085    301.18605   -300.70295   -7997411.2    64715.459   -7932695.7    698319.64    1.1716912    70.416552    70.416552     140.8331 
   44100    72085    299.86726   -298.07272   -7997508.4    64432.092   -7933076.3    697798.82    1.1725658    70.399041    70.399041    140.79808 
   44200    72085     299.4055   -191.45092   -7997643.1    64332.875   -7933310.3    697715.22    1.1727063     70.39623     70.39623    140.79246 
   44300    72085    298.05098    427.53383   -7997403.8     64041.83     -7933362    697325.35    1.1733619    70.383115    70.383115    140.76623 
   44400    72085      300.044     363.1124   -7997538.7    64470.067   -7933068.6    697031.57    1.1738565     70.37323     70.37323    140.74646 
   44500    72085    301.36346   -1082.2991   -7997496.4    64753.579   -7932742.8    697156.79    1.1736456    70.377444    70.377444    140.75489 
   44600    72085    300.38674   -90.124237   -7997367.8    64543.712   -7932824.1    697524.76    1.1730265    70.389824    70.389824    140.77965 
   44700    72085    300.18902    915.52174   -7997447.5    64501.228   -7932946.2    698057.36    1.1721315    70.407735    70.407735    140.81547 
   44800    72085    299.69612    645.54841   -7997353.4    64395.318   -7932958.1    698548.15     1.171308    70.424231    70.424231    140.84846 
   44900    72085    300.31881   -1854.4992     -7997548    64529.115   -7933018.9    698311.22    1.1717054    70.416269    70.416269    140.83254 
   45000    72085    301.07186   -920.25869   -7997764.4    64690.924   -7933073.5    698311.51    1.1717049    70.416278    70.416278    140.83256 
   45100    72085    298.57487   -451.52126   -7997320.7    64154.397   -7933166.3    698383.88    1.1715835    70.418711    70.418711    140.83742 
   45200    72085    300.81571   -75.579829   -7997618.4    64635.884   -7932982.5    697643.05    1.1728276    70.393802    70.393802     140.7876 
   45300    72085    300.43127     692.2178   -7997420.7     64553.28   -7932867.4    697316.71    1.1733765    70.382825    70.382825    140.76565 
   45400    72085    300.62312   -638.79797   -7997503.3    64594.501   -7932908.8    697288.79    1.1734234    70.381885    70.381885    140.76377 
   45500    72085    300.69753   -403.58646   -7997624.9    64610.491   -7933014.4    696884.77    1.1741037    70.368289    70.368289    140.73658 
   45600    72085    300.94125    2054.2324   -7997783.9    64662.859   -7933121.1    696335.83    1.1750293    70.349808    70.349808    140.69962 
   45700    72085    300.03474    274.47624   -7997695.5    64468.077   -7933227.4    696583.44    1.1746116    70.358146    70.358146    140.71629 
   45800    72085    299.56553    307.93629   -7997616.4    64367.259   -7933249.1    696270.27      1.17514      70.3476      70.3476     140.6952 
   45900    72085    300.35152   -153.76923   -7997614.9    64536.144   -7933078.7    696191.57    1.1752728     70.34495     70.34495     140.6899 
   46000    72085    300.13902    1072.1804   -7997505.5    64490.484     -7933015    696140.53     1.175359     70.34323     70.34323    140.68646 
   46100    72085    300.41766   -12.402215   -7997662.8    64550.355   -7933112.4    696700.64     1.174414    70.362091    70.362091    140.72418 
   46200    72085    300.43428   -271.75552   -7997782.5    64553.926   -7933228.6     697015.5    1.1738835    70.372689    70.372689    140.74538 
   46300    72085    299.74129   -136.87029   -7997792.3    64405.024   -7933387.3    697172.06    1.1736199    70.377958    70.377958    140.75592 
   46400    72085    298.42884   -154.01923   -7997591.9    64123.021   -7933468.9    696803.11    1.1742413    70.365541    70.365541    140.73108 
   46500    72085    299.77436    139.58911   -7997558.9     64412.13   -7933146.7    697041.61    1.1738395    70.373568    70.373568    140.74714 
   46600    72085    300.55353    -115.9497   -7997375.9    64579.551   -7932796.3    696985.13    1.1739347    70.371667    70.371667    140.74333 
   46700    72085    300.14234    1082.8532   -7997298.7    64491.198   -7932807.5     696672.3    1.1744618    70.361137    70.361137    140.72227 
   46800    72085    299.82761   -116.99188   -7997440.6    64423.572   -7933017.1    696521.45    1.1747162    70.356058    70.356058    140.71212 
   46900    72085    299.05897    802.30563   -7997533.3    64258.416   -7933274.9    696153.24    1.1753375    70.343658    70.343658    140.68732 
   47000    72085    299.01086    284.18634   -7997488.7    64248.077   -7933240.7    695793.43    1.1759453    70.331537    70.331537    140.66307 
   47100    72085    299.96229   -1013.0862   -7997416.4    64452.511   -7932963.8    695572.15    1.1763194    70.324081    70.324081    140.64816 
   47200    72085    299.17538    -231.2964   -7997120.7    64283.429   -7932837.3    696004.99    1.1755878    70.338665    70.338665    140.67733 
   47300    72085    299.98331   -432.41658   -7997354.3    64457.026   -7932897.2    695502.32    1.1764375    70.321727    70.321727    140.64345 
   47400    72085     298.6951   -432.44141   -7997538.7    64180.232   -7933358.4    695738.04    1.1760389    70.329671    70.329671    140.65934 
   47500    72085    298.11997    760.94208   -7997580.5    64056.654   -7933523.9    696023.03    1.1755574    70.339272    70.339272    140.67854 
   47600    72085    299.93073   -868.64256   -7997718.2     64445.73   -7933272.4    695826.49    1.1758894    70.332651    70.332651     140.6653 
   47700    72085    300.67717   -559.09607   -7997722.3    64606.116   -7933116.2    695681.27    1.1761349    70.327758    70.327758    140.65552 
   47800    72085    300.39486   -1379.7172   -7997707.9    64545.456   -7933162.5     695388.4    1.1766302    70.317888    70.317888    140.63578 
   47900    72085    299.49491    145.90012   -7997602.4    64352.085   -7933250.4    695683.33    1.1761314    70.327827    70.327827    140.65565 
   48000    72085     301.1542   -401.47833   -7998020.1    64708.616   -7933311.4    695484.32    1.1764679    70.321121    70.321121    140.64224 
   48100    72085    300.71671   -44.123173   -7998079.4    64614.612   -7933464.8    695272.99    1.1768255    70.313997    70.313997    140.62799 
   48200    72085    299.68496    1463.0064   -7998033.5    64392.921   -7933640.6    695514.13    1.1764175    70.322125    70.322125    140.64425 
   48300    72085    300.33761    754.51107   -7997827.4    64533.154   -7933294.3    695309.84    1.1767632     70.31524     70.31524    140.63048 
   48400    72085    300.16202    113.23469   -7997424.5    64495.425   -7932929.1    695452.94     1.176521    70.320063    70.320063    140.64013 
   48500    72085    298.95085    243.63872   -7997265.5    64235.185   -7933030.3    695122.84    1.1770797    70.308935    70.308935    140.61787 
   48600    72085    300.90515     376.9883   -7997746.1    64655.101     -7933091    694841.78    1.1775559    70.299458    70.299458    140.59892 
   48700    72085    298.85927   -422.91127   -7997380.1    64215.506   -7933164.6    694923.14     1.177418    70.302202    70.302202     140.6044 
   48800    72085    299.71465    197.39867   -7997674.3    64399.301     -7933275    694642.84    1.1778931    70.292748    70.292748     140.5855 
   48900    72085    299.36427    389.21277   -7997748.1    64324.016   -7933424.1    694141.86    1.1787432    70.275846    70.275846    140.55169 
   49000    72085    299.66212    360.84705   -7997965.6    64388.013   -7933577.6    693750.58     1.179408    70.262639    70.262639    140.52528 
   49100    72085    300.19233     546.5247   -7997988.6     64501.94   -7933486.6    694053.16    1.1788939    70.272852    70.272852     140.5457 
   49200    72085    300.57163    290.28725   -7997757.4    64583.438     -7933174    694457.93    1.1782067     70.28651     70.28651    140.57302 
   49300    72085    301.27574   -982.78328     -7997745    64734.731   -7933010.2    694761.69    1.1776916    70.296757    70.296757    140.59351 
   49400    72085    299.00834    978.95216   -7997506.9    64247.536   -7933259.4     694755.6    1.1777019    70.296551    70.296551     140.5931 
   49500    72085    299.07761   -827.78696   -7997873.2    64262.422   -7933610.8    695040.98    1.1772184    70.306175    70.306175    140.61235 
   49600    72085    299.12033    805.18444   -7998018.2      64271.6   -7933746.6    695097.59    1.1771225    70.308084    70.308084    140.61617 
   49700    72085    301.08954    1671.5994   -7998015.3    64694.723   -7933320.5    694899.42    1.1774582    70.301402    70.301402     140.6028 
   49800    72085    299.07984   -1097.4399   -7997243.3    64262.899   -7932980.4     695435.6    1.1765504    70.319478    70.319478    140.63896 
   49900    72085    301.48013    593.65714   -7997595.2    64778.647   -7932816.5    695409.93    1.1765938    70.318613    70.318613    140.63723 
   50000    72085    300.96132    464.06976     -7997804     64667.17   -7933136.8    695301.68     1.176777    70.314964    70.314964    140.62993 
   50100    72085    300.45504   -1040.7043   -7997979.7    64558.388   -7933421.3    694901.77    1.1774542    70.301481    70.301481    140.60296 
   50200    72085    300.39141    -768.1789   -7997994.6    64544.716   -7933449.9    694325.64    1.1784312    70.282047    70.282047    140.56409 
   50300    72085    300.43657    -1065.523   -7998041.4    64554.419     -7933487    694119.65    1.1787809    70.275096    70.275096    140.55019 
   50400    72085    299.60575    595.44093   -7998057.4    64375.901   -7933681.5    693356.72     1.180078    70.249339    70.249339    140.49868 
   50500    72085     300.0181   -344.66149   -7998421.6    64464.502   -7933957.1    694040.71     1.178915    70.272432    70.272432    140.54486 
   50600    72085    299.26447   -146.36437     -7998181    64302.571   -7933878.4    694103.84    1.1788078    70.274563    70.274563    140.54913 
   50700    72085    300.57687     243.6199   -7997996.2    64584.565   -7933411.6    693296.86    1.1801799    70.247318    70.247318    140.49464 
   50800    72085    301.15455   -868.84195   -7997975.7    64708.689     -7933267    693191.16    1.1803598    70.243748    70.243748     140.4875 
   50900    72085    299.29522   -1465.5795     -7997661    64309.178   -7933351.8    693113.28    1.1804925    70.241117    70.241117    140.48223 
   51000    72085    298.79402    337.96185   -7997921.1    64201.486   -7933719.6    692960.54    1.1807527    70.235957    70.235957    140.47191 
[...]
  187600    72085    299.34551   -264.50696   -8000323.3    64319.983   -7936003.4    680543.05    1.2022972    69.813895    69.813895    139.62779 
  187700    72085    299.87454   -663.58069     -8000218    64433.657   -7935784.4    681309.87     1.200944    69.840107    69.840107    139.68021 
  187800    72085    300.54511    1045.9798   -8000186.8     64577.74   -7935609.1    681618.51    1.2004002    69.850651    69.850651     139.7013 
  187900    72085    301.51674   -1167.4528   -8000408.1    64786.513   -7935621.6    681762.37    1.2001469    69.855565    69.855565    139.71113 
  188000    72085    298.32803   -624.42093   -8000191.3     64101.36   -7936089.9    682021.78    1.1996904    69.864424    69.864424    139.72885 
  188100    72085    299.08649   -809.72498   -8000448.9    64264.329   -7936184.6    682207.09    1.1993646    69.870751    69.870751     139.7415 
  188200    72085    299.86506    89.870595   -8000340.8    64431.619   -7935909.2    682163.79    1.1994407    69.869273    69.869273    139.73855 
  188300    72085    300.36724   -498.82632   -8000225.1    64539.522   -7935685.6    682573.49    1.1987207    69.883258    69.883258    139.76652 
  188400    72085    300.80426    287.32552   -8000141.8    64633.424   -7935508.4    682636.38    1.1986103    69.885404    69.885404    139.77081 
  188500    72085    301.98458   -1031.5919   -8000076.7    64887.038   -7935189.7    682788.43    1.1983434    69.890592    69.890592    139.78118 
  188600    72085    300.95652   -395.30503   -7999708.8     64666.14   -7935042.7    682593.75    1.1986852    69.883949    69.883949     139.7679 
  188700    72085    300.11532   -174.96514   -7999958.5    64485.391   -7935473.1    682851.83    1.1982321    69.892755    69.892755    139.78551 
  188800    72085    299.38355   -304.78768   -8000177.2    64328.157     -7935849    683269.94    1.1974989    69.907017    69.907017    139.81403 
  188900    72085    298.03801   -67.616789   -8000176.3    64039.044   -7936137.3    683359.21    1.1973425    69.910062    69.910062    139.82012 
  189000    72085    299.86113   -906.55197   -8000582.1    64430.775   -7936151.4    683168.95    1.1976759    69.903573    69.903573    139.80715 
  189100    72085    301.09324    1640.1874   -8000450.8    64695.517   -7935755.3    682873.84    1.1981935    69.893506    69.893506    139.78701 
  189200    72085    302.18677    632.24135   -8000501.9    64930.482   -7935571.4    682750.92    1.1984092    69.889312    69.889312    139.77862 
  189300    72085    301.78928   -244.25682   -8000450.9    64845.073   -7935605.8    682827.96     1.198274    69.891941    69.891941    139.78388 
  189400    72085     300.8489    334.85808     -8000367    64643.015     -7935724    682762.46     1.198389    69.889706    69.889706    139.77941 
  189500    72085    300.25681   -985.78482   -8000374.7    64515.793   -7935858.9    682484.93    1.1988763    69.880235    69.880235    139.76047 
  189600    72085    299.40267   -171.58776   -8000372.7    64332.266   -7936040.5    682617.54    1.1986434    69.884761    69.884761    139.76952 
  189700    72085    298.85228    1732.5137   -8000345.4    64214.005   -7936131.4    682366.97    1.1990835    69.876209    69.876209    139.75242 
  189800    72085    299.66603    86.753142   -8000443.4    64388.854   -7936054.5     682377.9    1.1990644    69.876582    69.876582    139.75316 
  189900    72085      298.698   -1609.3114   -8000088.9    64180.855     -7935908    682565.41    1.1987349    69.882982    69.882982    139.76596 
  190000    72085    300.17151   -1495.9399   -8000045.1    64497.466   -7935547.7    682379.48    1.1990616    69.876636    69.876636    139.75327 
  190100    72085    300.92259    1024.2814   -8000022.8     64658.85   -7935363.9    681785.53    1.2001062    69.856356    69.856356    139.71271 
  190200    72085    299.94751   -506.37339   -8000144.9    64449.336   -7935695.6    682072.27    1.1996016    69.866148    69.866148     139.7323 
  190300    72085     298.9682    644.12151   -8000227.6    64238.912   -7935988.7     682309.9    1.1991838    69.874261    69.874261    139.74852 
  190400    72085    300.05932     216.8539   -8000353.8    64473.359   -7935880.5     682601.4    1.1986718     69.88421     69.88421    139.76842 
  190500    72085    300.57883    923.08351   -8000253.9    64584.986     -7935669    682303.65    1.1991948    69.874047    69.874047    139.74809 
  190600    72085    300.45684   -657.48958     -8000217    64558.774   -7935658.2    682677.19    1.1985387    69.886796    69.886796    139.77359 
  190700    72085    299.03558   -759.60756   -8000308.5     64253.39   -7936055.1    683029.65    1.1979202    69.898822    69.898822    139.79764 
  190800    72085    298.10462   -172.06985     -8000324    64053.355   -7936270.6    682763.28    1.1983875    69.889734    69.889734    139.77947 
  190900    72085    299.83855    153.55573   -8000494.4    64425.922   -7936068.4    682483.15    1.1988794    69.880174    69.880174    139.76035 
  191000    72085    301.12819    906.98339   -8000269.3    64703.027   -7935566.3    682247.58    1.1992934    69.872133    69.872133    139.74427 
  191100    72085    301.12363    1355.2967   -8000192.4    64702.047   -7935490.3     681905.3    1.1998954    69.860446    69.860446    139.72089 
  191200    72085    300.23684    794.62353   -8000269.2    64511.502   -7935757.7    681659.81    1.2003275    69.852062    69.852062    139.70412 
  191300    72085    300.14322    738.82916   -8000450.9    64491.387   -7935959.5    681542.43    1.2005342    69.848052    69.848052     139.6961 
  191400    72085    299.51533   -784.12667   -8000329.2    64356.474   -7935972.8     681756.1     1.200158    69.855351    69.855351     139.7107 
  191500    72085    299.44166   -1472.3602   -8000248.1    64340.644   -7935907.4    681481.95    1.2006408    69.845986    69.845986    139.69197 
  191600    72085    300.13403    890.18613   -8000089.3    64489.412   -7935599.9    681313.34    1.2009379    69.840225    69.840225    139.68045 
  191700    72085     301.3589   -163.76888   -8000017.2    64752.598   -7935264.6    681559.73    1.2005037    69.848643    69.848643    139.69729 
  191800    72085    299.77428   -1138.6706   -8000034.9    64412.114   -7935622.8    681707.13    1.2002442    69.853678    69.853678    139.70736 
  191900    72085    299.01365     166.1821   -8000167.2    64248.678   -7935918.5    681649.68    1.2003453    69.851716    69.851716    139.70343 
  192000    72085    298.91892     1151.559     -8000090    64228.323   -7935861.7    681969.07    1.1997832    69.862624    69.862624    139.72525 
  192100    72085    300.48774    1102.2721   -8000165.4    64565.414     -7935600    682292.07    1.1992152    69.873652    69.873652     139.7473 
  192200    72085    301.92014   -209.76183   -8000263.3    64873.191   -7935390.1    682253.61    1.1992828    69.872339    69.872339    139.74468 
  192300    72085    300.67157   -231.03539   -8000198.7    64604.913   -7935593.8    681977.14     1.199769      69.8629      69.8629     139.7258 
  192400    72085    299.55308    1719.8855   -8000432.9    64364.584   -7936068.3     681902.5    1.1999003    69.860351    69.860351     139.7207 
  192500    72085    299.67375    1247.1886   -8000508.1    64390.512   -7936117.6    681743.16    1.2001807    69.854909    69.854909    139.70982 
  192600    72085    299.56756    838.38071   -8000302.1    64367.697   -7935934.4    682127.55    1.1995044    69.868035    69.868035    139.73607 
  192700    72085    300.36893    512.90368   -8000081.1    64539.886   -7935541.2    682265.07    1.1992626     69.87273     69.87273    139.74546 
  192800    72085    300.77182   -820.02058   -7999933.2    64626.454   -7935306.8    682392.91     1.199038    69.877094    69.877094    139.75419 
  192900    72085     298.7481    1019.4972   -7999937.8     64191.62   -7935746.1    681856.71    1.1999809    69.858787    69.858787    139.71757 
  193000    72085    299.52079    163.91063     -8000439    64357.647   -7936081.3       681825    1.2000367    69.857704    69.857704    139.71541 
  193100    72085    299.50614   -211.78338   -8000496.2    64354.499   -7936141.7    681554.43    1.2005131    69.848462    69.848462    139.69692 
  193200    72085    301.08693   -180.55268   -8000775.3    64694.161   -7936081.2    681261.99    1.2010284    69.838471    69.838471    139.67694 
  193300    72085    299.35311    100.37268   -8000191.6    64321.617     -7935870    680686.82    1.2020433    69.818811    69.818811    139.63762 
  193400    72085    301.54173   -495.52318     -8000224    64791.884   -7935432.1    680376.33    1.2025918    69.808194    69.808194    139.61639 
  193500    72085    300.51578    803.71294   -8000132.3    64571.438   -7935560.8    680226.69    1.2028564    69.803075    69.803075    139.60615 
  193600    72085    300.07917     506.0537   -8000402.5    64477.624   -7935924.9    680415.66    1.2025223    69.809539    69.809539    139.61908 
  193700    72085    300.18869   -310.06739   -8000500.4    64501.156   -7935999.3    680808.02    1.2018293    69.822955    69.822955    139.64591 
  193800    72085    299.91623   -228.23101   -8000419.3    64442.614   -7935976.7    681003.19    1.2014848    69.829626    69.829626    139.65925 
  193900    72085    300.19807   -194.44917   -8000333.1    64503.172   -7935829.9    680881.62    1.2016994    69.825471    69.825471    139.65094 
  194000    72085    301.95911   -782.64064   -8000359.7    64881.565   -7935478.1    680709.61     1.202003     69.81959     69.81959    139.63918 
  194100    72085     302.2588    85.374773   -8000231.8    64945.958   -7935285.8    681143.64    1.2012371    69.834426    69.834426    139.66885 
  194200    72085    300.18204    1063.3399   -8000227.7    64499.728   -7935727.9    681004.12    1.2014832    69.829658    69.829658    139.65932 
  194300    72085    299.68591   -544.53913   -8000325.2    64393.126   -7935932.1    681564.72     1.200495    69.848814    69.848814    139.69763 
  194400    72085    299.00621    79.463801   -8000200.2    64247.079   -7935953.2     681540.3     1.200538     69.84798     69.84798    139.69596 
  194500    72085    298.62546   -371.74508   -7999926.2    64165.267   -7935760.9    681470.46     1.200661    69.845594    69.845594    139.69119 
  194600    72085    302.06783    372.38446   -8000153.7    64904.927   -7935248.7    681395.91    1.2007924    69.843047    69.843047    139.68609 
  194700    72085    300.91058    534.46543   -8000081.7    64656.269   -7935425.4    681424.51     1.200742    69.844024    69.844024    139.68805 
  194800    72085    299.73097    382.83992   -8000173.7    64402.807   -7935770.9    681624.43    1.2003898    69.850854    69.850854    139.70171 
  194900    72085    298.84924   -1010.0991   -8000099.5     64213.35   -7935886.1    681340.34    1.2008903    69.841148    69.841148     139.6823 
  195000    72085     299.6977    140.58207   -8000020.5    64395.659   -7935624.9    681407.49     1.200772    69.843442    69.843442    139.68688 
  195100    72085     300.9196   -597.95849   -7999955.1    64658.207   -7935296.9    680846.16    1.2017619    69.824259    69.824259    139.64852 
  195200    72085     300.7865   -127.50237   -8000095.4    64629.607   -7935465.8    680811.53    1.2018231    69.823075    69.823075    139.64615 
  195300    72085    300.47785   -1170.4824   -8000346.9    64563.288   -7935783.6     680936.4    1.2016027    69.827343    69.827343    139.65469 
  195400    72085     299.2028   -96.806037     -8000339     64289.32   -7936049.6    681020.98    1.2014535    69.830234    69.830234    139.66047 
  195500    72085    300.36552   -210.75203   -8000621.3    64539.153   -7936082.1    681059.04    1.2013863    69.831535    69.831535    139.66307 
  195600    72085     300.6511    1040.5689   -8000412.7    64600.514   -7935812.2     681122.8    1.2012738    69.833714    69.833714    139.66743 
  195700    72085    301.03631   -1261.5287   -8000188.4    64683.285   -7935505.2    681130.77    1.2012598    69.833986    69.833986    139.66797 
  195800    72085      299.557   -122.65601   -8000085.5    64365.427     -7935720    680667.06    1.2020782    69.818135    69.818135    139.63627 
  195900    72085    299.23035   -312.69325   -8000496.4    64295.239   -7936201.2    680668.46    1.2020757    69.818183    69.818183    139.63637 
  196000    72085    299.11502    464.73956   -8000577.9    64270.459   -7936307.4    680417.02    1.2025199    69.809585    69.809585    139.61917 
  196100    72085    300.38704    364.67287   -8000628.7    64543.777   -7936084.9    680832.96    1.2017852    69.823807    69.823807    139.64761 
  196200    72085     299.6694    -1930.751   -8000232.5    64389.577     -7935843    681552.01    1.2005173     69.84838     69.84838    139.69676 
  196300    72085    300.86111   -332.07297   -8000380.2    64645.639   -7935734.5    682017.01    1.1996988    69.864261    69.864261    139.72852 
  196400    72085    300.02041    704.30012   -8000217.9    64464.999   -7935752.9    682525.64    1.1988048    69.881624    69.881624    139.76325 
  196500    72085    298.44575      -287.62     -7999925    64126.654   -7935798.4    682698.38    1.1985015     69.88752     69.88752    139.77504 
  196600    72085    300.71742    873.59909   -8000406.9    64614.764   -7935792.1    682023.83    1.1996868    69.864494    69.864494    139.72899 
  196700    72085    298.86008   -560.99005   -8000371.1     64215.68   -7936155.4    681763.26    1.2001454    69.855596    69.855596    139.71119 
  196800    72085    298.25521    469.97173   -8000407.8    64085.714   -7936322.1    681329.94    1.2009086    69.840793    69.840793    139.68159 
  196900    72085     299.2819   -527.91381   -8000291.3    64306.316     -7935985    681022.89    1.2014501      69.8303      69.8303     139.6606 
  197000    72085    300.38011    1568.4663   -8000250.6    64542.287   -7935708.4    680772.07    1.2018927    69.821726    69.821726    139.64345 
  197100    72085    301.08636    1254.5833   -8000369.9    64694.038   -7935675.9    680851.61    1.2017523    69.824445    69.824445    139.64889 
  197200    72085    299.15865    -272.6671   -8000013.1    64279.834   -7935733.2    681201.33    1.2011354    69.836398    69.836398     139.6728 
  197300    72085    299.76592   -965.59238   -8000123.3    64410.318     -7935713    681078.05    1.2013528    69.832185    69.832185    139.66437 
  197400    72085    299.96369   -1571.8086   -8000400.5    64452.811   -7935947.7       680983    1.2015205    69.828936    69.828936    139.65787 
  197500    72085    297.35487   -212.62679   -8000173.1    63892.257   -7936280.8    680500.69     1.202372    69.812447    69.812447    139.62489 
  197600    72085    299.03117    629.23112   -8000320.8    64252.443   -7936068.4    681099.34    1.2013152    69.832912    69.832912    139.66582 
  197700    72085    300.70813    561.49576     -8000329    64612.768   -7935716.3     681640.1    1.2003622    69.851389    69.851389    139.70278 
  197800    72085    300.41297   -367.84786   -8000252.5    64549.347   -7935703.2     681813.9    1.2000562    69.857325    69.857325    139.71465 
  197900    72085    300.42299    959.92268   -8000490.7    64551.501   -7935939.2    681148.03    1.2012294    69.834576    69.834576    139.66915 
  198000    72085       299.46    12.873005   -8000544.4    64344.585   -7936199.8    680812.29    1.2018217    69.823101    69.823101     139.6462 
  198100    72085    299.53977    969.33373   -8000557.3    64361.725   -7936195.6    680525.12    1.2023289    69.813282    69.813282    139.62656 
  198200    72085    300.14895    747.20424   -8000329.9    64492.619   -7935837.3     680965.2    1.2015519    69.828328    69.828328    139.65666 
  198300    72085    300.42294    56.456804   -8000337.1     64551.49   -7935785.6     681122.7     1.201274    69.833711    69.833711    139.66742 
  198400    72085     299.0345    -619.1715     -8000120    64253.158   -7935866.8    681033.52    1.2014313    69.830663    69.830663    139.66133 
  198500    72085    299.35707    -172.3311     -8000226    64322.468   -7935903.6    680988.71    1.2015104    69.829131    69.829131    139.65826 
  198600    72085    299.90434   -201.21872     -8000585     64440.06     -7936145    680945.79    1.2015861    69.827664    69.827664    139.65533 
  198700    72085    298.69851   -233.91608     -8000787    64180.963     -7936606    681047.19    1.2014072     69.83113     69.83113    139.66226 
  198800    72085    299.00708     142.0871   -8000851.7    64247.265   -7936604.4    680973.76    1.2015368     69.82862     69.82862    139.65724 
  198900    72085    299.39005    674.65601     -8000346    64329.554   -7936016.5    680987.56    1.2015124    69.829092    69.829092    139.65818 
  199000    72085    299.55282    852.58753   -8000232.9    64364.528   -7935868.3    680407.84    1.2025361    69.809271    69.809271    139.61854 
  199100    72085     300.1555   -70.833233     -8000333    64494.025   -7935838.9    680261.44    1.2027949    69.804264    69.804264    139.60853 
  199200    72085    299.99254   -112.46776     -8000500     64459.01     -7936041    680400.16    1.2025497    69.809009    69.809009    139.61802 
  199300    72085    299.55636   -98.121245   -8000772.5    64365.289   -7936407.2    680495.35    1.2023815    69.812264    69.812264    139.62453 
  199400    72085    299.75463   -86.585065   -8000847.6    64407.891   -7936439.7    680748.86    1.2019337    69.820932    69.820932    139.64186 
  199500    72085     299.9438    32.592818   -8000532.3    64448.537   -7936083.7    681343.31    1.2008851    69.841249    69.841249     139.6825 
  199600    72085    301.78445   -694.96295   -8000643.7    64844.035   -7935799.6    681655.22    1.2003356    69.851905    69.851905    139.70381 
  199700    72085     300.2564    1141.6907   -8000362.5    64515.705   -7935846.8     681256.2    1.2010386    69.838273    69.838273    139.67655 
  199800    72085    299.77958   -102.19307   -8000304.7    64413.252   -7935891.4    681141.57    1.2012407    69.834356    69.834356    139.66871 
  199900    72085    300.78685   -517.98222   -8000740.5    64629.683   -7936110.8    681761.91    1.2001477    69.855549    69.855549     139.7111 
  200000    72085    297.38047   -114.54374   -8000308.7    63897.758   -7936410.9    682259.32    1.1992727    69.872534    69.872534    139.74507 
Loop time of 93923.5 on 56 procs for 200000 steps with 72085 atoms

Performance: 0.046 ns/day, 521.797 hours/ns, 2.129 timesteps/s
96.2% CPU use with 56 MPI tasks x no OpenMP threads

MPI task timing breakdown:
Section |  min time  |  avg time  |  max time  |%varavg| %total
---------------------------------------------------------------
Pair    | 45171      | 49550      | 51416      | 682.7 | 52.76
Neigh   | 3472.1     | 3882.6     | 4271.5     | 301.3 |  4.13
Comm    | 2185       | 4095.6     | 8339.2     |2323.0 |  4.36
Output  | 8.7737     | 8.842      | 9.1321     |   2.5 |  0.01
Modify  | 35738      | 36380      | 37041      | 161.3 | 38.73
Other   |            | 6.546      |            |       |  0.01

Nlocal:    1287.23 ave 1380 max 1144 min
Histogram: 2 1 4 4 9 2 11 13 7 3
Nghost:    13160.1 ave 13663 max 12684 min
Histogram: 7 6 6 2 8 9 1 5 5 7
Neighs:    1.23356e+06 ave 1.36574e+06 max 1.01822e+06 min
Histogram: 1 2 1 6 8 4 9 14 6 5

Total # of neighbors = 69079483
Ave neighs/atom = 958.306
Neighbor list builds = 20000
Dangerous builds not checked
write_restart	restart.npt_equi
unfix npt_equi
undump npt_dump


Please see the log.cite file for references relevant to this simulation

Total wall time: 26:06:55
