LAMMPS (2 Aug 2019)
#lammps code to run fracture simulations on PNC with two cnt vertical arrangement
#functionalized 10 % with -OH group
#cnt not fixed during nvt equilibration in materials studio

units		real
atom_style 	charge
boundary 	p p p
read_data       two_cnt_v_f.data
  orthogonal box = (-0.181716 1.74786 2.01154) to (69.8183 71.7479 142.012)
  2 by 4 by 7 MPI processor grid
  reading atoms ...
  72085 atoms
  read_data CPU = 0.286902 secs

pair_style	reax/c control_file lgvdw yes
pair_coeff	* * ffield.reax.lg C C H O C C C O O C C
Reading potential file ffield.reax.lg with DATE: 2012-01-06

neighbor	4 bin
neigh_modify	every 10 delay 0 check no

thermo 100
thermo_style custom step atoms temp press pe ke etotal vol density lx ly lz      #output variables

fix std all qeq/reax 1 0.0 10.0 1e-6 reax/c
min_style	 cg							#conjugate gradient minimization
minimize	 1.0e-6 1.0e-8 10000 100000
WARNING: Using 'neigh_modify every 1 delay 0 check yes' setting during minimization (../min.cpp:168)
Neighbor list info ...
  update every 1 steps, delay 0 steps, check yes
  max neighbors/atom: 2000, page size: 100000
  master list distance cutoff = 14
  ghost atom cutoff = 14
  binsize = 7, bins = 10 10 20
  2 neighbor lists, perpetual/occasional/extra = 2 0 0
  (1) pair reax/c, perpetual
      attributes: half, newton off, ghost
      pair build: half/bin/newtoff/ghost
      stencil: half/ghost/bin/3d/newtoff
      bin: standard
  (2) fix qeq/reax, perpetual, copy from (1)
      attributes: half, newton off, ghost
      pair build: copy
      stencil: none
      bin: none
Per MPI rank memory allocation (min/avg/max) = 309.1 | 322.5 | 333.2 Mbytes
Step Atoms Temp Press PotEng KinEng TotEng Volume Density Lx Ly Lz 
       0    72085            0    293119.37   -7619153.1            0   -7619153.1       686000    1.1927332           70           70          140 
      39    72085            0    13747.163   -8005550.7            0   -8005550.7       686000    1.1927332           70           70          140 
Loop time of 55.2759 on 56 procs for 39 steps with 72085 atoms

93.8% CPU use with 56 MPI tasks x no OpenMP threads

Minimization stats:
  Stopping criterion = energy tolerance
  Energy initial, next-to-last, final = 
        -7619153.12625     -8005550.58383     -8005550.66177
  Force two-norm initial, final = 66760 9564.78
  Force max component initial, final = 8665.85 206.894
  Final line search alpha, max atom move = 0.00015188 0.0314231
  Iterations, force evaluations = 39 68

MPI task timing breakdown:
Section |  min time  |  avg time  |  max time  |%varavg| %total
---------------------------------------------------------------
Pair    | 16.125     | 17.461     | 18.351     |  13.0 | 31.59
Neigh   | 0          | 0          | 0          |   0.0 |  0.00
Comm    | 0.70462    | 1.5884     | 2.9035     |  44.7 |  2.87
Output  | 0          | 0          | 0          |   0.0 |  0.00
Modify  | 36.014     | 36.028     | 36.05      |   0.1 | 65.18
Other   |            | 0.1993     |            |       |  0.36

Nlocal:    1287.23 ave 1382 max 1130 min
Histogram: 1 1 3 4 7 5 9 16 8 2
Nghost:    13160.6 ave 13512 max 12796 min
Histogram: 6 6 2 8 2 5 11 8 1 7
Neighs:    1.2261e+06 ave 1.36683e+06 max 1.01456e+06 min
Histogram: 1 1 5 5 6 7 7 14 7 3

Total # of neighbors = 68661873
Ave neighs/atom = 952.513
Neighbor list builds = 0
Dangerous builds not checked


#set of equilibrations to reduce the energy of the system

reset_timestep 0
timestep 0.25
#fix nvt_equi all nvt temp 300.0 300.0 25.0
fix npt_equi all npt temp 300.0 300.0 25.0 iso 1.0 1.0 250.0
dump npt_dump all custom 500 dump.npt id type x y z
run 200000
Per MPI rank memory allocation (min/avg/max) = 308.7 | 322.2 | 332.9 Mbytes
Step Atoms Temp Press PotEng KinEng TotEng Volume Density Lx Ly Lz 
       0    72085            0    13747.159   -8005550.7            0   -8005550.7       686000    1.1927332           70           70          140 
     100    72085    78.586994    -5166.806   -8021352.2    16885.886   -8004466.4    692040.15     1.182323    70.204847    70.204847    140.40969 
     200    72085    102.82298   -2181.1654   -8023264.2    22093.441   -8001170.8     688207.3    1.1889078    70.074998    70.074998       140.15 
     300    72085    118.65262    -1998.554   -8022318.5    25494.735   -7996823.8    687323.94    1.1904358    70.045003    70.045003    140.09001 
     400    72085    132.93932   -925.30083   -8020552.2      28564.5   -7991987.7    691854.52    1.1826403    70.198569    70.198569    140.39714 
     500    72085    155.15289    1107.7575   -8019636.3    33337.501   -7986298.8    695660.92    1.1761693    70.327072    70.327072    140.65414 
     600    72085    174.74648       521.19   -8017466.8    37547.551   -7979919.3    697962.22    1.1722913    70.404536    70.404536    140.80907 
     700    72085    188.91307    1681.3802   -8013586.5    40591.509     -7972995    700516.22    1.1680172    70.490307    70.490307    140.98061 
     800    72085    209.78818    1320.8825   -8010833.1    45076.916   -7965756.2    704632.45     1.161194    70.628104    70.628104    141.25621 
     900    72085    229.07051   -175.32659     -8007398    49220.086   -7958177.9    708352.41     1.155096    70.752175    70.752175    141.50435 
    1000    72085    245.56693    2795.4065   -8003318.9    52764.651   -7950554.2    710924.72    1.1509165    70.837714    70.837714    141.67543 
    1100    72085    261.70904    156.50153   -7999323.1    56233.084     -7943090    713962.64    1.1460194    70.938472    70.938472    141.87694 
    1200    72085    279.01689    -106.7566   -7996101.7    59951.999   -7936149.7    715481.52    1.1435865    70.988741    70.988741    141.97748 
    1300    72085    288.87347    1225.0384   -7992124.6     62069.87   -7930054.7    715606.58    1.1433867    70.992877    70.992877    141.98575 
    1400    72085    297.88956    153.79972   -7989105.2    64007.146     -7925098    716986.47    1.1411861    71.038479    71.038479    142.07696 
    1500    72085    303.34011    1726.6747   -7986801.9    65178.298   -7921623.6    717691.45    1.1400652    71.061754    71.061754    142.12351 
    1600    72085    302.57011    157.00525   -7985002.1     65012.85   -7919989.3    720003.43    1.1364043    71.137979    71.137979    142.27596 
    1700    72085    301.82367    421.03693   -7984520.4    64852.463   -7919667.9       721045    1.1347628    71.172266    71.172266    142.34453 
    1800    72085    302.49712   -331.26971   -7985156.5    64997.165   -7920159.3    721264.34    1.1344177    71.179482    71.179482    142.35896 
    1900    72085    297.13024   -93.798457   -7984986.9    63843.993   -7921142.9    720024.92    1.1363704    71.138687    71.138687    142.27737 
    2000    72085    298.94904    347.88928   -7985624.2    64234.796   -7921389.4    718364.93    1.1389963    71.083975    71.083975    142.16795 
    2100    72085    299.75149   -1557.7763   -7985751.4    64407.217   -7921344.2    718763.89    1.1383641    71.097132    71.097132    142.19426 
    2200    72085       302.13   -377.88309   -7986244.7    64918.283   -7921326.4    718573.75    1.1386653    71.090863    71.090863    142.18173 
    2300    72085    301.74995    212.81312     -7987116    64836.622   -7922279.3    717845.92    1.1398198    71.066852    71.066852     142.1337 
    2400    72085    298.17729   -351.02621   -7987764.6     64068.97   -7923695.7    718026.36    1.1395334    71.072806    71.072806    142.14561 
    2500    72085    299.40237    103.75165   -7989026.4    64332.202   -7924694.2    719140.49     1.137768    71.109548    71.109548     142.2191 
    2600    72085    299.04023   -801.29626   -7989670.5    64254.389   -7925416.1    721281.09    1.1343913    71.180033    71.180033    142.36007 
    2700    72085    300.27468    815.85729   -7990620.2    64519.634   -7926100.6    722931.58    1.1318014    71.234285    71.234285    142.46857 
    2800    72085    298.74301    12.372876   -7990849.1    64190.526   -7926658.6    724917.96    1.1287002    71.299468    71.299468    142.59894 
    2900    72085     299.1366    1389.6686   -7991192.5    64275.096   -7926917.4    728048.37     1.123847    71.401951    71.401951     142.8039 
    3000    72085    299.09223     268.5834   -7991053.9    64265.563   -7926788.3       731608     1.118379     71.51813     71.51813    143.03626 
    3100    72085    301.67416    830.00379   -7991101.3    64820.339     -7926281    735381.84    1.1126397    71.640889    71.640889    143.28178 
    3200    72085    300.64294    2273.0423   -7990810.3    64598.761   -7926211.5    739185.86    1.1069138    71.764206    71.764206    143.52841 
    3300    72085    299.26861    1634.6799   -7990681.1    64303.462   -7926377.7       743260    1.1008463    71.895811    71.895811    143.79162 
    3400    72085    298.14289    1017.8776   -7990570.2    64061.579   -7926508.6    747463.69    1.0946552    72.031098    72.031098     144.0622 
    3500    72085    299.04447    798.35156   -7990349.6    64255.301   -7926094.3    751456.84    1.0888383     72.15914     72.15914    144.31828 
    3600    72085     299.2519    1192.0838   -7989688.4     64299.87   -7925388.5    754739.64    1.0841023    72.264065    72.264065    144.52813 
    3700    72085    297.99055    1296.1579   -7988508.1    64028.845   -7924479.3    758975.65    1.0780517    72.399008    72.399008    144.79802 
    3800    72085    301.89021    925.20523   -7988098.3    64866.761   -7923231.6    763201.81    1.0720821    72.533138    72.533138    145.06628 
    3900    72085    302.05621    428.70224   -7987463.2    64902.428   -7922560.8    767602.84    1.0659354    72.672292    72.672292    145.34458 
    4000    72085    300.72126    921.03594     -7986935     64615.59   -7922319.4    771554.42    1.0604761    72.796783    72.796783    145.59357 
    4100    72085    299.18817    1536.4113   -7986298.8    64286.177   -7922012.7    776088.61    1.0542804    72.939106    72.939106    145.87821 
    4200    72085    300.07982    2063.3866   -7985999.6    64477.765   -7921521.9    780332.74    1.0485463    73.071823    73.071823    146.14365 
    4300    72085    300.16162    568.80898   -7985648.3    64495.342   -7921152.9     784203.7    1.0433705    73.192452    73.192452     146.3849 
    4400    72085    302.12544    1296.3713   -7985847.1    64917.303   -7920929.8    788472.85    1.0377212     73.32503     73.32503    146.65006 
    4500    72085    298.33253    103.66054   -7985154.1    64102.327   -7921051.8    792641.71    1.0322634    73.454032    73.454032    146.90806 
    4600    72085    299.92699    874.96661   -7985173.8    64444.927   -7920728.8    796672.81    1.0270402    73.578342    73.578342    147.15668 
    4700    72085    301.22586    1583.6275     -7985033    64724.012     -7920309    799720.85    1.0231258    73.672059    73.672059    147.34412 
    4800    72085    300.72193    1472.6841   -7985139.4    64615.733   -7920523.7    802198.18    1.0199662    73.748053    73.748053    147.49611 
    4900    72085    300.53809   -367.62352   -7985906.6    64576.233   -7921330.4    804268.35    1.0173408    73.811437    73.811437    147.62287 
    5000    72085    297.54025    829.59913     -7985995     63932.09   -7922062.9    805989.19    1.0151687    73.864043    73.864043    147.72809 
    5100    72085    299.39817   -605.43642   -7986419.4    64331.299   -7922088.1    806567.54    1.0144408    73.881706    73.881706    147.76341 
    5200    72085     301.8181   -80.391124   -7986635.8    64851.266   -7921784.6    806366.62    1.0146935    73.875571    73.875571    147.75114 
    5300    72085    301.71412   -147.28679   -7986896.7    64828.923   -7922067.8       806420    1.0146264    73.877201    73.877201     147.7544 
    5400    72085    298.94315    969.48919   -7987091.9    64233.529   -7922858.3    805052.32    1.0163501    73.835412    73.835412    147.67082 
    5500    72085    299.50489    1190.1433   -7987455.1    64354.231   -7923100.8    804280.92    1.0173249    73.811822    73.811822    147.62364 
    5600    72085    301.24796   -1477.3895   -7987580.4    64728.761   -7922851.7    802860.67    1.0191245    73.768349    73.768349     147.5367 
    5700    72085    300.85037   -1252.8347   -7987483.1    64643.331   -7922839.8     800408.2    1.0222472     73.69316     73.69316    147.38632 
    5800    72085    299.53627   -283.56803   -7987487.8    64360.971   -7923126.8    798530.91    1.0246504    73.635501    73.635501      147.271 
    5900    72085    298.79422    -699.1705   -7987762.3    64201.528   -7923560.8    795842.18    1.0281121    73.552762    73.552762    147.10552 
    6000    72085    300.48971   -902.43369   -7988230.7    64565.836   -7923664.9    793110.76    1.0316529    73.468518    73.468518    146.93704 
    6100    72085    298.95301   -410.21152   -7987860.9    64235.647   -7923625.2    790460.86    1.0351114    73.386604    73.386604    146.77321 
    6200    72085    300.19536   -982.23464   -7987941.3    64502.591   -7923438.7    788049.39    1.0382788    73.311901    73.311901     146.6238 
    6300    72085    299.23756   -628.67744   -7987646.5    64296.789   -7923349.7    785471.75    1.0416861    73.231881    73.231881    146.46376 
    6400    72085    300.29744   -1662.2137   -7987989.2    64524.525   -7923464.6    783279.28    1.0446019    73.163681    73.163681    146.32736 
    6500    72085    301.87642   -903.87682   -7988675.2    64863.798   -7923811.4    780097.47    1.0488625    73.064479    73.064479    146.12896 
    6600    72085    298.32547   -1269.3338   -7988739.3     64100.81   -7924638.5    777105.47    1.0529008    72.970948    72.970948     145.9419 
    6700    72085    297.78439    170.74422   -7988730.5    63984.549     -7924746    774245.29    1.0567904    72.881314    72.881314    145.76263 
    6800    72085    300.44375   -810.98797   -7988666.4    64555.962   -7924110.4    771991.46    1.0598757    72.810526    72.810526    145.62105 
    6900    72085    301.14617   -299.21621   -7988545.4     64706.89   -7923838.5    770020.66    1.0625884    72.748514    72.748514    145.49703 
    7000    72085    302.49618    421.43681   -7989242.2    64996.964   -7924245.2    768085.24    1.0652659    72.687513    72.687513    145.37503 
    7100    72085    298.30896   -410.41102   -7989273.1    64097.262   -7925175.8    766217.05    1.0678632    72.628533    72.628533    145.25707 
    7200    72085    298.43596   -1558.2046   -7989771.4     64124.55   -7925646.9    764074.95     1.070857    72.560788    72.560788    145.12158 
    7300    72085    298.25244   -606.70236   -7989521.7    64085.117   -7925436.6    762543.38    1.0730078    72.512273    72.512273    145.02455 
    7400    72085     302.7021    1054.5122   -7989809.1    65041.211   -7924767.8    762923.85    1.0724727    72.524331    72.524331    145.04866 
    7500    72085    302.74011    -905.8517   -7989798.1    65049.378   -7924748.7    763136.15    1.0721744    72.531058    72.531058    145.06212 
    7600    72085    298.73505    547.20504   -7989509.3    64188.816   -7925320.5    762492.18    1.0730799     72.51065     72.51065     145.0213 
    7700    72085    300.07329    1127.4273   -7990127.7    64476.362   -7925651.4    762029.77     1.073731    72.495989    72.495989    144.99198 
    7800    72085    300.44501   -302.40682   -7990316.6    64556.232   -7925760.3    762673.26    1.0728251     72.51639     72.51639    145.03278 
    7900    72085    300.26063    199.68738   -7990123.6    64516.615     -7925607     763777.1    1.0712746    72.551358    72.551358    145.10272 
    8000    72085    300.06345   -102.94501   -7990077.2    64474.247   -7925602.9    764251.76    1.0706093    72.566384    72.566384    145.13277 
    8100    72085    299.07716    1187.3757   -7989886.8    64262.324   -7925624.4    764632.89    1.0700756    72.578445    72.578445    145.15689 
    8200    72085     299.3337    723.37987   -7989763.3    64317.446   -7925445.8    765450.56    1.0689325    72.604307    72.604307    145.20861 
    8300    72085    300.56821    754.49048   -7989886.1    64582.704   -7925303.4    766135.78    1.0679765    72.625965    72.625965    145.25193 
    8400    72085    297.89836    566.06926   -7989382.7    64009.037   -7925373.7    766803.71    1.0670462    72.647065    72.647065    145.29413 
    8500    72085    302.18577   -408.29387   -7990045.9    64930.267   -7925115.7    768196.09    1.0651122    72.691009    72.691009    145.38202 
    8600    72085    300.79037    174.88969   -7989942.3    64630.438   -7925311.8    769799.11    1.0628942    72.741537    72.741537    145.48307 
    8700    72085    298.53253     79.93591   -7989733.8      64145.3   -7925588.5     770462.8    1.0619786    72.762435    72.762435    145.52487 
    8800    72085    299.33478   -1089.4649   -7989585.4    64317.679   -7925267.7    771646.57    1.0603494    72.799681    72.799681    145.59936 
    8900    72085    299.62142    -358.1612   -7989233.8    64379.268   -7924854.5    772213.94    1.0595704    72.817519    72.817519    145.63504 
    9000    72085    301.64917   -1303.6845   -7989472.5    64814.967   -7924657.6    773264.84    1.0581304    72.850537    72.850537    145.70107 
    9100    72085    299.40901   -515.49366   -7989218.9    64333.628   -7924885.3    774559.15    1.0563622     72.89116     72.89116    145.78232 
    9200    72085    298.99038     156.2268   -7989271.2    64243.679   -7925027.5    775318.03    1.0553282    72.914958    72.914958    145.82992 
    9300    72085     299.5031   -307.98055   -7989136.7    64353.845   -7924782.8    776000.24    1.0544005    72.936338    72.936338    145.87268 
    9400    72085    301.14004    45.753558   -7989320.6    64705.572     -7924615    776082.41    1.0542888    72.938912    72.938912    145.87782 
    9500    72085     301.1201    969.88405   -7989663.2    64701.287     -7924962     776416.6     1.053835     72.94938     72.94938    145.89876 
    9600    72085    298.24174   -576.83003   -7989582.7    64082.818   -7925499.9    776331.78    1.0539502    72.946723    72.946723    145.89345 
    9700    72085    299.36162   -135.90375   -7989873.6    64323.446   -7925550.2    776740.41    1.0533957     72.95952     72.95952    145.91904 
    9800    72085      299.938   -90.431436     -7989607    64447.292   -7925159.7    776058.84    1.0543208    72.938174    72.938174    145.87635 
    9900    72085    301.54243    126.93464   -7989510.9    64792.033   -7924718.9    774769.69    1.0560751    72.897764    72.897764    145.79553 
   10000    72085    301.68943   -388.09304   -7989615.2     64823.62   -7924791.6    774018.89    1.0570995    72.874209    72.874209    145.74842 
   10100    72085    301.38977   -855.18734     -7990094    64759.232   -7925334.8    772943.79    1.0585699    72.840453    72.840453    145.68091 
   10200    72085    299.59946   -358.07702   -7990318.3     64374.55   -7925943.7    771709.04    1.0602636    72.801646    72.801646    145.60329 
   10300    72085    298.24922   -22.420065   -7990220.9    64084.426   -7926136.5    770836.88    1.0614632     72.77421     72.77421    145.54842 
   10400    72085    300.86142   -361.42133   -7990519.6    64645.707   -7925873.9    770295.75    1.0622089    72.757176    72.757176    145.51435 
   10500    72085    300.70994   -478.06226   -7990399.5    64613.157   -7925786.3    769569.29    1.0632116    72.734297    72.734297    145.46859 
   10600    72085    299.72619   -562.60723   -7990365.4     64401.78   -7925963.6    768873.22    1.0641742    72.712361    72.712361    145.42472 
   10700    72085    299.43058    543.09007   -7990592.5    64338.264   -7926254.3    768908.07    1.0641259    72.713459    72.713459    145.42692 
   10800    72085    298.83785    1592.6473     -7990510    64210.903   -7926299.1    768266.72    1.0650143    72.693237    72.693237    145.38647 
   10900    72085    300.47697   -17.266784   -7990557.2      64563.1   -7925994.1    767857.95    1.0655812    72.680342    72.680342    145.36068 
   11000    72085    300.41827    241.90114   -7990292.1    64550.487   -7925741.6    766705.21    1.0671833    72.643954    72.643954    145.28791 
   11100    72085    300.06297    795.88229   -7990429.5    64474.143   -7925955.3    766529.05    1.0674286     72.63839     72.63839    145.27678 
   11200    72085    299.36447   -653.35027   -7990717.8    64324.058   -7926393.8     765652.3    1.0686509    72.610685    72.610685    145.22137 
   11300    72085     299.6475   -771.14492   -7991064.5    64384.872   -7926679.7    763689.27    1.0713978    72.548577    72.548577    145.09715 
   11400    72085    299.65158     59.20095   -7991205.1     64385.75   -7926819.3    762314.25    1.0733303     72.50501     72.50501    145.01002 
   11500    72085    299.81338   -394.33953   -7991252.7    64420.514   -7926832.2    760753.76     1.075532    72.455502    72.455502      144.911 
   11600    72085    299.19716    94.860837   -7990925.2    64288.109   -7926637.1     759586.9    1.0771842    72.418439    72.418439    144.83688 
   11700    72085    301.75395   -610.29861   -7991217.3    64837.482   -7926379.9    758443.78    1.0788077    72.382092    72.382092    144.76418 
   11800    72085    300.47994    324.22073     -7991029    64563.737   -7926465.2    757737.31    1.0798135    72.359611    72.359611    144.71922 
   11900    72085    300.21116   -881.93132   -7991115.3    64505.985   -7926609.3    756718.36    1.0812676    72.327162    72.327162    144.65432 
   12000    72085    299.45632    227.72186   -7991199.9    64343.793   -7926856.1    755670.05    1.0827675    72.293748    72.293748     144.5875 
   12100    72085    299.75755   -220.83808   -7991220.2    64408.518   -7926811.7    755432.15    1.0831085     72.28616     72.28616    144.57232 
   12200    72085    301.26418    132.35751   -7991645.1    64732.246   -7926912.9    754405.22    1.0845829     72.25339     72.25339    144.50678 
   12300    72085    299.69435    1355.9392   -7991721.7    64394.939   -7927326.8    753127.95    1.0864223     72.21259     72.21259    144.42518 
   12400    72085    299.42935   -719.85361   -7991794.5    64337.998   -7927456.5    753060.28    1.0865199    72.210427    72.210427    144.42085 
   12500    72085    299.37802   -201.59653   -7991601.4     64326.97   -7927274.4    752809.87    1.0868814    72.202423    72.202423    144.40485 
   12600    72085    300.12645    393.07683   -7991381.8    64487.783     -7926894    752671.07    1.0870818    72.197985    72.197985    144.39597 
   12700    72085    300.62932   -155.09451     -7991396    64595.835   -7926800.2    753296.41    1.0861794    72.217974    72.217974    144.43595 
   12800    72085    300.29054   -1335.6858   -7991802.2    64523.042   -7927279.2    752653.56    1.0871071    72.197425    72.197425    144.39485 
   12900    72085    297.85409   -1052.7365   -7991937.7    63999.524   -7927938.2    751877.37    1.0882293    72.172598    72.172598     144.3452 
   13000    72085    298.13389    1432.6194   -7991838.6    64059.645     -7927779    752067.07    1.0879548    72.178667    72.178667    144.35733 
   13100    72085    302.43298   -1101.8222   -7992038.4    64983.385     -7927055     751980.9    1.0880795    72.175911    72.175911    144.35182 
   13200    72085    301.39845    193.47885   -7991660.7    64761.096   -7926899.6    751433.72    1.0888718      72.1584      72.1584     144.3168 
   13300    72085    301.14555   -100.52913   -7991993.6    64706.757   -7927286.9    751436.66    1.0888676    72.158494    72.158494    144.31699 
   13400    72085    299.20035   -61.178582   -7992141.5    64288.793   -7927852.7    751492.62    1.0887865    72.160285    72.160285    144.32057 
   13500    72085    299.00685   -751.08568   -7992214.9    64247.217   -7927967.7    751321.53    1.0890344    72.154809    72.154809    144.30962 
   13600    72085    299.49321    856.24407   -7991957.7    64351.721     -7927606    751506.19    1.0887668     72.16072     72.16072    144.32144 
   13700    72085    299.52363    -815.7423   -7991557.9    64358.257   -7927199.7    751804.94    1.0883342     72.17028     72.17028    144.34056 
   13800    72085    300.01364    1289.7576   -7991416.3    64463.545   -7926952.8    752087.56    1.0879252    72.179323    72.179323    144.35865 
   13900    72085    300.29969    294.82569     -7991625    64525.007     -7927100    752460.94    1.0873854    72.191265    72.191265    144.38253 
   14000    72085    298.75882   -610.08393   -7991934.1    64193.923   -7927740.2    752921.14    1.0867207     72.20598     72.20598    144.41196 
   14100    72085    297.90938   -541.99376   -7992146.2    64011.405   -7928134.8    753195.34    1.0863251    72.214744    72.214744    144.42949 
   14200    72085    300.12471    692.77129   -7992308.1    64487.411   -7927820.7    752469.95    1.0873723    72.191554    72.191554    144.38311 
   14300    72085    299.74788  -0.72490935   -7991886.4     64406.44     -7927480    752329.93    1.0875747    72.187076    72.187076    144.37415 
   14400    72085    300.98435   -158.44651   -7991975.3     64672.12   -7927303.1    751744.46    1.0884217    72.168345    72.168345    144.33669 
   14500    72085    300.81811    825.68018   -7992097.2      64636.4   -7927460.8    751201.09     1.089209    72.150953    72.150953    144.30191 
   14600    72085    299.16005     860.6711   -7992013.3    64280.135   -7927733.1    751134.37    1.0893058    72.148817    72.148817    144.29763 
   14700    72085    299.58518   -622.09506   -7992154.8    64371.483   -7927783.4    751098.99    1.0893571    72.147684    72.147684    144.29537 
   14800    72085    299.81886   -280.98062   -7992117.2    64421.692   -7927695.5    751269.02    1.0891105    72.153128    72.153128    144.30626 
   14900    72085    300.00946    1359.3134   -7991940.4    64462.646   -7927477.8    751247.11    1.0891423    72.152426    72.152426    144.30485 
   15000    72085    299.57849    881.54793   -7991735.4    64370.044   -7927365.3    750785.21    1.0898124    72.137636    72.137636    144.27527 
   15100    72085    299.88625   -1314.2575   -7992041.1    64436.172   -7927604.9     750576.8     1.090115     72.13096     72.13096    144.26192 
   15200    72085     299.2767    -1121.501   -7992342.9    64305.198   -7928037.7    749954.07    1.0910202    72.111006    72.111006    144.22201 
   15300    72085    299.59322    1295.7682   -7992575.6    64373.208   -7928202.4    749097.93    1.0922671    72.083556    72.083556    144.16711 
   15400    72085    298.35452    248.48572   -7992229.7    64107.051   -7928122.7    749301.87    1.0919698    72.090096    72.090096    144.18019 
   15500    72085    300.87159     -189.833   -7992469.1    64647.891   -7927821.2    748880.17    1.0925847     72.07657     72.07657    144.15314 
   15600    72085    299.84941    1771.7181   -7992190.7    64428.257   -7927762.4    747997.03    1.0938747    72.048226    72.048226    144.09645 
   15700    72085    300.58069    702.06753     -7992501    64585.385   -7927915.6    748177.22    1.0936112    72.054011    72.054011    144.10802 
   15800    72085    299.03102    74.813639   -7992563.9     64252.41   -7928311.5    746878.34    1.0955131     72.01229     72.01229    144.02458 
   15900    72085    298.32566    908.53101   -7992449.4     64100.85   -7928348.6    746246.28     1.096441    71.991971    71.991971    143.98394 
   16000    72085    299.90885   -1255.6763     -7992442    64441.027     -7928001     745571.8    1.0974329    71.970274    71.970274    143.94055 
   16100    72085    299.97606    972.04867   -7992187.4    64455.471     -7927732    744138.02    1.0995474     71.92411     71.92411    143.84822 
   16200    72085    300.17926    298.45012     -7992237    64499.131   -7927737.9    743587.38    1.1003616    71.906366    71.906366    143.81273 
   16300    72085    300.29533   -294.76477   -7992447.3     64524.07   -7927923.2    742690.89    1.1016898    71.877456    71.877456    143.75491 
   16400    72085    299.18062    89.144721   -7992527.4    64284.555   -7928242.8    742158.41    1.1024803    71.860275    71.860275    143.72055 
   16500    72085    300.13241   -442.81347   -7992701.3    64489.065   -7928212.2    741761.45    1.1030703     71.84746     71.84746    143.69492 
   16600    72085    300.38454    615.43806   -7992714.3    64543.239   -7928171.1    741322.55    1.1037233    71.833287    71.833287    143.66657 
   16700    72085    299.97403   -828.73314   -7992808.9    64455.032   -7928353.9    741658.31    1.1032237     71.84413     71.84413    143.68826 
   16800    72085    298.34818   -1155.4761   -7992606.7     64105.69     -7928501    741998.47    1.1027179    71.855112    71.855112    143.71022 
   16900    72085    299.31345   -852.65892   -7992839.6    64313.095   -7928526.5    741308.98    1.1037436    71.832849    71.832849     143.6657 
   17000    72085    298.83304   -662.86775   -7992608.7     64209.87   -7928398.9    741218.43    1.1038784    71.829924    71.829924    143.65985 
   17100    72085    301.39654   -302.93285   -7992966.3    64760.687   -7928205.6    741087.51    1.1040734    71.825694    71.825694    143.65139 
   17200    72085    301.40359   -1036.5699   -7992958.9    64762.201   -7928196.7    741198.53     1.103908    71.829281    71.829281    143.65856 
   17300    72085    299.32441   -1437.2513   -7992634.9    64315.451   -7928319.5    741755.34    1.1030794    71.847263    71.847263    143.69453 
   17400    72085    298.21287    1402.8792   -7992531.9    64076.615   -7928455.3    741055.27    1.1041214    71.824653    71.824653    143.64931 
   17500    72085    299.45891   -1648.6204   -7992844.8     64344.35   -7928500.4    740442.77    1.1050348    71.804859    71.804859    143.60972 
   17600    72085    297.75939    24.780971   -7992655.5    63979.177   -7928676.3    739752.18    1.1060664    71.782529    71.782529    143.56506 
   17700    72085     301.7184    711.60479   -7993293.3    64829.843   -7928463.4    739217.54    1.1068663    71.765231    71.765231    143.53046 
   17800    72085    299.88249   -645.88228   -7992822.4    64435.364     -7928387    738147.04    1.1084716    71.730572    71.730572    143.46114 
   17900    72085    300.55663   -374.22445   -7993121.5    64580.217   -7928541.3    737879.62    1.1088733    71.721909    71.721909    143.44382 
   18000    72085    298.99007   -1103.1013   -7992954.5    64243.611   -7928710.9    737576.04    1.1093297    71.712072    71.712072    143.42414 
   18100    72085    299.38583    668.34735   -7993007.6    64328.647     -7928679    736667.01    1.1106986    71.682599    71.682599     143.3652 
   18200    72085    301.18273    601.62959   -7993392.9    64714.745   -7928678.1    736989.69    1.1102123    71.693063    71.693063    143.38613 
   18300    72085    298.71224   -71.331807   -7993135.8    64183.914   -7928951.9    736414.27    1.1110798      71.6744      71.6744     143.3488 
   18400    72085    300.30383    369.91805   -7993634.3    64525.897   -7929108.4     735752.1    1.1120797    71.652911    71.652911    143.30582 
   18500    72085    300.15004    587.00904   -7993569.1    64492.853   -7929076.3    735766.07    1.1120586    71.653365    71.653365    143.30673 
   18600    72085    299.79496    179.35012   -7993433.6    64416.557     -7929017    735622.82    1.1122752    71.648714    71.648714    143.29743 
   18700    72085     300.6213   -1530.2531   -7993469.7    64594.111   -7928875.6    735476.85    1.1124959    71.643974    71.643974    143.28795 
   18800    72085    300.47091    753.62757   -7993249.8    64561.798     -7928688    735724.08    1.1121221    71.652001    71.652001      143.304 
   18900    72085    301.17692    1814.6444   -7993429.9    64713.496   -7928716.5    735552.65    1.1123813    71.646436    71.646436    143.29287 
   19000    72085    301.03175    669.06214   -7993516.5    64682.304   -7928834.2    735400.42    1.1126116    71.641493    71.641493    143.28299 
   19100    72085    299.44734   -1048.4635   -7993431.7    64341.864   -7929089.8     735367.2    1.1126618    71.640414    71.640414    143.28083 
   19200    72085    299.84586    674.12149   -7993720.5    64427.494     -7929293    734436.84    1.1140713    71.610189    71.610189    143.22038 
   19300    72085    299.93731    1244.2291   -7993905.2    64447.144   -7929458.1    734631.97    1.1137754     71.61653     71.61653    143.23306 
   19400    72085    299.89721    1061.3435   -7993802.6    64438.527   -7929364.1    734749.43    1.1135973    71.620347    71.620347    143.24069 
   19500    72085    298.98723   -499.23505   -7993321.8        64243   -7929078.8    734680.43    1.1137019    71.618105    71.618105    143.23621 
   19600    72085    300.46582    673.29384     -7993437    64560.703   -7928876.3    734049.61     1.114659    71.597601    71.597601     143.1952 
   19700    72085    300.12499     313.2603   -7993491.8    64487.469   -7929004.3     733696.3    1.1151958    71.586112    71.586112    143.17222 
   19800    72085    298.78513   -701.20394   -7993486.8    64199.577   -7929287.2    733437.92    1.1155886    71.577708    71.577708    143.15542 
   19900    72085    299.35948   -1650.0166   -7993572.6    64322.986   -7929249.6    732595.46    1.1168715    71.550292    71.550292    143.10058 
   20000    72085    300.64671   -621.19415   -7993553.3    64599.571   -7928953.7    732331.85    1.1172735    71.541709    71.541709    143.08342 
   20100    72085    301.56368    1863.1173   -7993813.8      64796.6   -7929017.2    731727.02    1.1181971    71.522008    71.522008    143.04402 
   20200    72085    299.55006   -217.36593   -7993810.2    64363.936   -7929446.2    731784.76    1.1181088    71.523889    71.523889    143.04778 
   20300    72085    299.55725    446.92005   -7994003.3     64365.48   -7929637.8    731122.48    1.1191217    71.502306    71.502306    143.00461 
   20400    72085    299.21042   -504.47176   -7993869.9    64290.958   -7929578.9    731127.13    1.1191145    71.502457    71.502457    143.00491 
   20500    72085    299.94876   -535.54492     -7993827    64449.604   -7929377.3    730739.47    1.1197082    71.489818    71.489818    142.97964 
   20600    72085    301.19125   -311.83832   -7993940.4    64716.575   -7929223.9    729898.69     1.120998    71.462389    71.462389    142.92478 
   20700    72085    301.33333   -951.43084   -7994106.3    64747.105   -7929359.2    729665.62    1.1213561    71.454782    71.454782    142.90956 
   20800    72085    299.87944   -1134.1335   -7994258.5    64434.709   -7929823.8    728994.51    1.1223884    71.432868    71.432868    142.86574 
   20900    72085    299.05033     765.6638   -7994336.8    64256.558   -7930080.2    728961.03      1.12244    71.431775    71.431775    142.86355 
   21000    72085    300.69434   -715.54384   -7994460.7    64609.805   -7929850.9    729202.33    1.1220686    71.439655    71.439655    142.87931 
   21100    72085    300.97159   -941.68807   -7993961.1    64669.378   -7929291.8    728394.88    1.1233124    71.413277    71.413277    142.82655 
   21200    72085    302.67144   -798.44841   -7993886.9    65034.622   -7928852.3    728007.45    1.1239102    71.400613    71.400613    142.80123 
   21300    72085    303.29324   -459.13856     -7994280    65168.227   -7929111.8    727559.63     1.124602     71.38597     71.38597    142.77194 
   21400    72085    298.89287    1468.4381   -7994158.4    64222.725   -7929935.7    727265.49    1.1250568    71.376349    71.376349     142.7527 
   21500    72085    298.97383    67.854792   -7994515.6    64240.122   -7930275.4    728054.16    1.1238381     71.40214     71.40214    142.80428 
   21600    72085    299.01343    480.57711   -7994336.9     64248.63   -7930088.2    728050.87    1.1238432    71.402033    71.402033    142.80407 
   21700    72085    300.35604   -442.84667     -7994078    64537.116   -7929540.9    728558.02    1.1230609    71.418608    71.418608    142.83722 
   21800    72085    302.97633    1006.9647   -7994411.6    65100.133   -7929311.5    728366.07    1.1233568    71.412336    71.412336    142.82467 
   21900    72085    299.05728   -1067.5034   -7994002.2    64258.052   -7929744.2    729033.46    1.1223285     71.43414     71.43414    142.86828 
   22000    72085    297.51111   -947.86725   -7994145.8    63925.829   -7930219.9    729281.87    1.1219462    71.442253    71.442253    142.88451 
   22100    72085    298.40278    1001.1146   -7994398.6    64117.421   -7930281.2    728974.33    1.1224195    71.432209    71.432209    142.86442 
   22200    72085    300.52719    1290.7473   -7994399.9     64573.89     -7929826    728478.15     1.123184    71.415998    71.415998      142.832 
   22300    72085    300.80847   -28.379479   -7994152.6    64634.328   -7929518.3     727623.3    1.1245036    71.388053    71.388053    142.77611 
   22400    72085    301.29186    484.79352   -7994496.1    64738.193   -7929757.9    727092.57    1.1253244    71.370691    71.370691    142.74138 
   22500    72085    299.45009   -1048.0514   -7994524.9    64342.455   -7930182.5    727120.66    1.1252809     71.37161     71.37161    142.74322 
   22600    72085    297.98269    63.826673   -7994477.9    64027.156   -7930450.8    727560.59    1.1246005    71.386002    71.386002      142.772 
   22700    72085    299.82261   -984.65314   -7994687.4    64422.499   -7930264.9    727767.53    1.1242807    71.392769    71.392769    142.78554 
   22800    72085    300.87688    1336.4594   -7994579.1    64649.028   -7929930.1    727761.47    1.1242901    71.392571    71.392571    142.78514 
   22900    72085    301.70669    1678.7183   -7994566.7    64827.328   -7929739.4    728135.28    1.1237129    71.404792    71.404792    142.80958 
   23000    72085    301.37164    1046.3363   -7994516.6    64755.337   -7929761.3    728727.31       1.1228    71.424139    71.424139    142.84828 
   23100    72085    300.06411   -1031.5006   -7994617.5    64474.388   -7930143.1    729082.29    1.1222533    71.435735    71.435735    142.87147 
   23200    72085    297.75997    30.104511   -7994487.2    63979.302   -7930507.9    728520.13    1.1231193     71.41737     71.41737    142.83474 
   23300    72085    299.05756   -706.67251   -7994651.2    64258.112   -7930393.1    728579.18    1.1230283      71.4193      71.4193     142.8386 
   23400    72085    300.19731    589.83686   -7994390.1    64503.009   -7929887.1    728218.59    1.1235843    71.407515    71.407515    142.81503 
   23500    72085    302.00633    518.78355   -7994464.2    64891.712   -7929572.5    727374.02     1.124889    71.379899    71.379899     142.7598 
   23600    72085    300.42379   -915.43008   -7994319.9    64551.672   -7929768.2    727574.96    1.1245783    71.386472    71.386472    142.77294 
   23700    72085    298.91567    269.81821   -7994412.3    64227.624   -7930184.7    727164.27    1.1252134    71.373037    71.373037    142.74607 
   23800    72085    297.84716   -1609.6785   -7994458.1    63998.036   -7930460.1    727047.53    1.1253941    71.369218    71.369218    142.73844 
   23900    72085    300.80421    102.71924   -7994950.5    64633.414   -7930317.1    725993.55    1.1270279    71.334714    71.334714    142.66943 
   24000    72085    300.60024    -971.2742   -7994787.7    64589.586   -7930198.1    725504.62    1.1277875    71.318696    71.318696    142.63739 
   24100    72085    299.53833   -713.69357   -7994463.5    64361.415     -7930102    725109.56    1.1284019    71.305749    71.305749     142.6115 
   24200    72085    300.51694    788.60171   -7994557.3    64571.688   -7929985.6    724574.71    1.1292348    71.288212    71.288212    142.57642 
   24300    72085    299.35841   -705.34294   -7994386.6    64322.756   -7930063.8    724573.34     1.129237    71.288168    71.288168    142.57634 
   24400    72085    299.34411   -1544.9685   -7994579.3    64319.683   -7930259.6    724820.24    1.1288523    71.296264    71.296264    142.59253 
   24500    72085    300.57718    1908.8655   -7994951.8    64584.632   -7930367.1     724269.5    1.1297107    71.278202    71.278202     142.5564 
   24600    72085    299.61578   -273.31338   -7994783.5    64378.057   -7930405.4    724760.33    1.1289456    71.294299    71.294299     142.5886 
   24700    72085      300.566   -160.51896   -7994950.9    64582.229   -7930368.6    724458.05    1.1294167    71.284386    71.284386    142.56877 
   24800    72085    298.68452   -1378.7663   -7994709.8    64177.958   -7930531.8    723902.08    1.1302841    71.266147    71.266147    142.53229 
   24900    72085    298.92372   -73.691093   -7994899.6    64229.355   -7930670.3    723561.31    1.1308164    71.254962    71.254962    142.50992 
   25000    72085    298.97575   -13.297072   -7994786.2    64240.533   -7930545.7    723230.09    1.1313343    71.244088    71.244088    142.48818 
   25100    72085    300.90123    122.93114   -7994845.1     64654.26   -7930190.9    723087.58    1.1315573    71.239408    71.239408    142.47882 
   25200    72085     300.6238   -345.95774   -7994870.7    64594.648     -7930276    722828.28    1.1319632    71.230892    71.230892    142.46178 
   25300    72085    298.41705    11.645239   -7994897.1    64120.487   -7930776.6    722599.74    1.1323212    71.223383    71.223383    142.44677 
   25400    72085    299.54472   -252.69645   -7995412.4    64362.787   -7931049.6    722036.22    1.1332049    71.204864    71.204864    142.40973 
   25500    72085    299.24328   -918.86188   -7995223.8    64298.018   -7930925.8    721805.39    1.1335673    71.197275    71.197275    142.39455 
   25600    72085     300.1058    730.37868   -7995039.1    64483.347   -7930555.7    721450.44     1.134125    71.185603    71.185603    142.37121 
   25700    72085    301.07496    741.06551     -7994861     64691.59   -7930169.4       721470    1.1340943    71.186247    71.186247    142.37249 
   25800    72085    300.80087    115.47617   -7994884.9    64632.695   -7930252.2    721735.95    1.1336764    71.194992    71.194992    142.38998 
   25900    72085    300.17005    713.05683   -7995197.1    64497.152   -7930699.9    721363.29     1.134262    71.182737    71.182737    142.36547 
   26000    72085    298.80257   -107.72661   -7995078.3    64203.324     -7930875    721701.03    1.1337312    71.193844    71.193844    142.38769 
   26100    72085    300.51081   -477.76651     -7995167    64570.371   -7930596.6    721504.77    1.1340396     71.18739     71.18739    142.37478 
   26200    72085    299.37341   -294.58992   -7994808.9    64325.978   -7930482.9    720885.55    1.1350138    71.167019    71.167019    142.33404 
   26300    72085      300.346   -1226.8642   -7995035.3    64534.957   -7930500.3     720528.2    1.1355767    71.155258    71.155258    142.31052 
   26400    72085    299.76055    1168.4862   -7994952.7    64409.162   -7930543.5    719782.22    1.1367536    71.130693    71.130693    142.26139 
   26500    72085    299.38538    978.33573   -7994964.8    64328.551   -7930636.2    719438.62    1.1372965    71.119373    71.119373    142.23875 
   26600    72085    299.57928   -83.859688   -7995100.5    64370.214   -7930730.2    719053.34    1.1379059    71.106675    71.106675    142.21335 
   26700    72085    301.01977   -792.92089   -7995452.8    64679.731   -7930773.1    718921.58    1.1381144    71.102331    71.102331    142.20466 
   26800    72085    300.31172   -512.29685   -7995571.2    64527.591   -7931043.6    718354.14    1.1390134    71.083619    71.083619    142.16724 
   26900    72085    299.58383   -225.64219   -7995621.3    64371.191   -7931250.2    717604.44    1.1402034    71.058883    71.058883    142.11777 
   27000    72085    299.98957   -599.05373   -7995642.4    64458.372   -7931184.1    718130.99    1.1393674    71.076259    71.076259    142.15252 
   27100    72085    300.44941   -681.39418   -7995443.2    64557.178     -7930886    718086.61    1.1394378    71.074794    71.074794    142.14959 
   27200    72085     300.6784   -1199.2049   -7995258.6     64606.38   -7930652.2    718368.17    1.1389912    71.084082    71.084082    142.16816 
   27300    72085    301.28561    547.34591   -7995398.4     64736.85   -7930661.6    718213.57    1.1392364    71.078983    71.078983    142.15797 
   27400    72085    300.05552   -1087.9552   -7995254.4    64472.543   -7930781.9    717878.02    1.1397689    71.067912    71.067912    142.13582 
   27500    72085    300.89421   -541.34242   -7995584.2    64652.751   -7930931.5    717693.48    1.1400619    71.061821    71.061821    142.12364 
   27600    72085    298.42654   -350.25345   -7995140.6    64122.526   -7931018.1    717728.67     1.140006    71.062983    71.062983    142.12597 
   27700    72085    299.88791   -12.774991     -7995216    64436.529   -7930779.5    718496.91    1.1387871    71.088329    71.088329    142.17666 
   27800    72085    301.61149     660.4306   -7995354.3    64806.872   -7930547.4    718729.99    1.1384178    71.096015    71.096015    142.19203 
   27900    72085    300.71966   -1484.5234   -7995486.1    64615.246   -7930870.8    718781.06    1.1383369    71.097699    71.097699     142.1954 
   28000    72085    298.36224    643.33727   -7995365.4     64108.71   -7931256.7    719374.42     1.137398    71.117257    71.117257    142.23451 
   28100    72085    300.95153   -52.934344   -7995846.5    64665.067   -7931181.4     719427.6    1.1373139     71.11901     71.11901    142.23802 
   28200    72085    299.97196   -1813.3086   -7995295.4    64454.588   -7930840.8    719420.38    1.1373253    71.118771    71.118771    142.23754 
   28300    72085    301.29035   -82.015458   -7995323.2     64737.87   -7930585.4    719770.42    1.1367722    71.130304    71.130304    142.26061 
   28400    72085    300.26019    378.31957   -7995156.8    64516.521   -7930640.3    719614.31    1.1370188    71.125161    71.125161    142.25032 
   28500    72085    299.71371   -757.71288   -7995352.1    64399.099     -7930953    719701.62    1.1368809    71.128038    71.128038    142.25608 
   28600    72085    298.79837    623.46555   -7995288.2     64202.42   -7931085.8     718707.3    1.1384537    71.095267    71.095267    142.19053 
   28700    72085    300.72756   -172.70016   -7995496.2    64616.943   -7930879.2    718068.28    1.1394669    71.074189    71.074189    142.14838 
   28800    72085    299.68544    625.40169     -7995231    64393.025     -7930838    716436.67    1.1420619    71.020317    71.020317    142.04063 
   28900    72085    300.21394    905.17365   -7995541.2    64506.582   -7931034.6    716592.02    1.1418143    71.025449    71.025449     142.0509 
   29000    72085     298.6326   -1149.0148   -7995625.6    64166.802   -7931458.8    717305.83     1.140678    71.049025    71.049025    142.09805 
   29100    72085    298.48632    1232.0464   -7995749.9     64135.37   -7931614.6    716989.04     1.141182    71.038564    71.038564    142.07713 
   29200    72085    301.12067    580.30502   -7996130.1    64701.409   -7931428.7    717290.76     1.140702    71.048527    71.048527    142.09705 
   29300    72085    300.51544    635.17405   -7995870.6    64571.366   -7931299.3    717302.25    1.1406837    71.048907    71.048907    142.09781 
   29400    72085    299.87946   -1262.6787   -7995633.9    64434.714   -7931199.1    717827.02    1.1398498    71.066229    71.066229    142.13246 
   29500    72085    299.90206   -642.47837   -7995685.7     64439.57   -7931246.1    717828.16     1.139848    71.066266    71.066266    142.13253 
   29600    72085     299.5711    731.39206   -7995703.7    64368.457   -7931335.2     717556.4    1.1402797    71.057297    71.057297    142.11459 
   29700    72085     300.5433    395.38608   -7995794.7    64577.351   -7931217.3    717673.54    1.1400936    71.061163    71.061163    142.12233 
   29800    72085    299.98047    1497.4956   -7995828.6    64456.417   -7931372.2    716966.61    1.1412177    71.037823    71.037823    142.07565 
   29900    72085    300.19963   -962.30078   -7995995.6    64503.508     -7931492    716871.58     1.141369    71.034685    71.034685    142.06937 
   30000    72085    299.70609    665.32467     -7995809    64397.461   -7931411.6    716735.04    1.1415865    71.030174    71.030174    142.06035 
   30100    72085    301.11516    375.71082   -7996014.4    64700.226   -7931314.2    716527.73    1.1419167    71.023325    71.023325    142.04665 
   30200    72085      298.912    369.03596   -7995660.9    64226.837   -7931434.1    716059.18     1.142664    71.007841    71.007841    142.01568 
   30300    72085    299.75659    357.92482   -7995696.5    64408.313   -7931288.2    716059.58    1.1426633    71.007854    71.007854    142.01571 
   30400    72085    302.18592     1475.361   -7996074.7    64930.299   -7931144.4     715830.5     1.143029    71.000281    71.000281    142.00056 
   30500    72085    298.80257    443.15653   -7995667.3    64203.322     -7931464    715750.96     1.143156    70.997651    70.997651     141.9953 
   30600    72085    299.51123   -1099.6109   -7995997.5    64355.592     -7931642     715194.9    1.1440448     70.97926     70.97926    141.95852 
   30700    72085    299.25534    903.95585   -7995830.3     64300.61   -7931529.7    714248.39    1.1455609    70.947935    70.947935    141.89587 
   30800    72085     300.9932   -2763.0939   -7996070.9    64674.022   -7931396.9    714492.43    1.1451696    70.956014    70.956014    141.91203 
   30900    72085     299.6559   -521.89029   -7995940.8    64386.678   -7931554.1     714241.6    1.1455718     70.94771     70.94771    141.89542 
   31000    72085    298.24789    347.01988   -7995893.9    64084.139   -7931809.7    713746.76     1.146366    70.931322    70.931322    141.86264 
   31100    72085    299.97813   -439.65357   -7996256.5    64455.914   -7931800.6    713122.92    1.1473688     70.91065     70.91065     141.8213 
   31200    72085     300.8157    54.002504   -7996126.1    64635.883   -7931490.3    712678.15    1.1480849    70.895905    70.895905    141.79181 
   31300    72085    299.69424    227.92552   -7995726.1    64394.916   -7931331.2    712537.64    1.1483113    70.891245    70.891245    141.78249 
   31400    72085     300.0924   -81.410508   -7995974.9    64480.468   -7931494.4    712965.41    1.1476223    70.905429    70.905429    141.81086 
   31500    72085     298.9701   -154.74352   -7995979.3     64239.32     -7931740    712456.53     1.148442    70.888555    70.888555    141.77711 
   31600    72085    299.70631    52.953381   -7996178.1    64397.508   -7931780.6     712410.2    1.1485167    70.887019    70.887019    141.77404 
   31700    72085    299.72716   -252.02048   -7996137.4    64401.989   -7931735.5    711805.75     1.149492    70.866965    70.866965    141.73393 
   31800    72085    299.13788    194.42238   -7996079.7    64275.372   -7931804.3    711852.16    1.1494171    70.868505    70.868505    141.73701 
   31900    72085    299.60714   -780.66141   -7995924.6    64376.201   -7931548.4    712647.86    1.1481337      70.8949      70.8949     141.7898 
   32000    72085    300.53781    125.59933   -7995698.4    64576.172   -7931122.2     712097.4    1.1490212    70.876642    70.876642    141.75328 
   32100    72085    299.92125     750.1994   -7995610.4    64443.693   -7931166.7    711517.95    1.1499569    70.857412    70.857412    141.71482 
   32200    72085    300.24207   -1901.1667   -7995961.5    64512.627   -7931448.9     711586.1    1.1498468    70.859675    70.859675    141.71935 
   32300    72085     299.4826   -99.450012     -7996324     64349.44   -7931974.6    710499.23    1.1516058    70.823579    70.823579    141.64716 
   32400    72085    297.29658    60.036908   -7996335.8    63879.734   -7932456.1    710911.19    1.1509384    70.837265    70.837265    141.67453 
   32500    72085    297.54955    258.98948   -7996244.3    63934.088   -7932310.3    711367.63    1.1501999    70.852422    70.852422    141.70484 
   32600    72085     300.8371     231.9178   -7996172.1     64640.48   -7931531.6    711317.68    1.1502807    70.850764    70.850764    141.70153 
   32700    72085    302.73188   -578.37706   -7996099.4    65047.608   -7931051.8    711469.81    1.1500348    70.855814    70.855814    141.71163 
   32800    72085     299.6675   -250.22331   -7995631.7    64389.169   -7931242.5    710983.13     1.150822    70.839654    70.839654    141.67931 
   32900    72085     299.8246    -1462.563     -7995944    64422.925   -7931521.1    711311.52    1.1502907    70.850559    70.850559    141.70112 
   33000    72085    299.33204    215.69292   -7996126.8     64317.09   -7931809.7    710922.78    1.1509197     70.83765     70.83765     141.6753 
   33100    72085    298.24771    1028.7977   -7996008.7    64084.101   -7931924.6    710921.52    1.1509217    70.837608    70.837608    141.67522 
   33200    72085    300.15406   -686.11342   -7996244.5    64493.716   -7931750.7    710715.99    1.1512545    70.830781    70.830781    141.66156 
   33300    72085    299.94436    584.83763   -7996111.4    64448.659   -7931662.8    709679.55    1.1529359    70.796333    70.796333    141.59267 
   33400    72085    301.13885   -1429.0559     -7996386    64705.317   -7931680.7    709569.24    1.1531151    70.792665    70.792665    141.58533 
   33500    72085    300.22594    1510.7744   -7996501.1    64509.161   -7931991.9    709130.69    1.1538282    70.778077    70.778077    141.55615 
   33600    72085    298.14711    494.95852   -7996220.5    64062.485     -7932158    709344.62    1.1534802    70.785194    70.785194    141.57039 
   33700    72085    299.17571   -316.35857   -7996019.6      64283.5   -7931736.1    709693.04     1.152914    70.796782    70.796782    141.59356 
   33800    72085    301.20124   -463.56278   -7995933.7    64718.722     -7931215    709887.04    1.1525989    70.803232    70.803232    141.60646 
   33900    72085    299.30253    1097.0839   -7995481.1    64310.749   -7931170.3       709412    1.1533707    70.787435    70.787435    141.57487 
   34000    72085    300.23608   -722.34499   -7995964.8    64511.339   -7931453.4    709694.53    1.1529115    70.796831    70.796831    141.59366 
   34100    72085    299.98483    288.42301   -7996425.9    64457.355   -7931968.5    709697.45    1.1529068    70.796929    70.796929    141.59386 
   34200    72085    298.41422   -365.30181   -7996288.5    64119.879   -7932168.7    709858.51    1.1526452    70.802284    70.802284    141.60457 
   34300    72085    299.53616   -149.00481   -7996157.4    64360.948   -7931796.5    710232.13    1.1520389    70.814703    70.814703    141.62941 
   34400    72085    301.39018     171.3437   -7996079.9    64759.319   -7931320.6     710834.8    1.1510621    70.834728    70.834728    141.66946 
   34500    72085     301.1134    566.80467   -7995980.2    64699.849   -7931280.3     710772.3    1.1511633    70.832652    70.832652     141.6653 
   34600    72085    300.69791   -504.47332   -7996171.4    64610.573   -7931560.8    710129.32    1.1522056    70.811286    70.811286    141.62257 
   34700    72085    300.38544    710.84185   -7996203.2    64543.432   -7931659.8    710546.82    1.1515286    70.825161    70.825161    141.65032 
   34800    72085    301.42952   -861.11296   -7996435.7    64767.772     -7931668    711328.93    1.1502625    70.851137    70.851137    141.70227 
   34900    72085    299.89255    601.99768   -7996345.8    64437.525   -7931908.3    710342.45    1.1518599     70.81837     70.81837    141.63674 
   35000    72085     299.4349     209.2075   -7996352.4     64339.19   -7932013.2     710384.8    1.1517913    70.819777    70.819777    141.63955 
   35100    72085    300.44029    1239.1509     -7996344    64555.219   -7931788.8    710085.54    1.1522767    70.809831    70.809831    141.61966 
   35200    72085     300.8735    559.73024   -7996282.1    64648.301   -7931633.8    709488.49    1.1532463    70.789979    70.789979    141.57996 
   35300    72085    300.61978    488.00103     -7996245    64593.786   -7931651.2    709209.18    1.1537005    70.780689    70.780689    141.56138 
   35400    72085    300.72893    915.18852   -7996441.4    64617.239   -7931824.1    708923.86    1.1541649    70.771196    70.771196    141.54239 
   35500    72085    300.05104   -637.98398   -7996366.1    64471.581   -7931894.5    708760.45     1.154431    70.765757    70.765757    141.53151 
   35600    72085     299.5073     635.7404   -7996118.9    64354.747   -7931764.1    709181.71    1.1537452    70.779775    70.779775    141.55955 
   35700    72085    299.06653   -129.72829   -7995914.8    64260.041   -7931654.7    709714.39    1.1528793    70.797492    70.797492    141.59498 
   35800    72085    302.46323    164.90587   -7996483.8    64989.884   -7931493.9    709743.03    1.1528327    70.798444    70.798444    141.59689 
   35900    72085    300.36293    948.83089   -7996303.7    64538.595   -7931765.1    709663.63    1.1529617    70.795804    70.795804    141.59161 
   36000    72085     299.6052    735.50293   -7996321.3    64375.783   -7931945.5     709665.9     1.152958    70.795879    70.795879    141.59176 
   36100    72085    301.05101   -1707.4502   -7996414.2    64686.443   -7931727.8     709620.9    1.1530312    70.794383    70.794383    141.58877 
   36200    72085    300.66143     668.1573   -7996141.7    64602.733     -7931539    708966.86    1.1540949    70.772626    70.772626    141.54525 
   36300    72085    299.29609   -1411.8443   -7996009.3    64309.365   -7931699.9    709469.74    1.1532768    70.789356    70.789356    141.57871 
   36400    72085    300.31025    848.32429   -7996324.4    64527.276   -7931797.1    708997.58    1.1540449    70.773649    70.773649     141.5473 
   36500    72085    301.28612   -687.62606   -7996309.9    64736.961   -7931572.9    709765.53    1.1527962    70.799192    70.799192    141.59838 
   36600    72085     300.8823     -41.5605   -7996150.4    64650.191   -7931500.2     708930.1    1.1541547    70.771403    70.771403    141.54281 
   36700    72085    300.22024     520.7378     -7996167    64507.936   -7931659.1    708999.58    1.1540416    70.773715    70.773715    141.54743 
   36800    72085    300.58747   -944.73005   -7996577.5    64586.843   -7931990.7    709390.05    1.1534064    70.786705    70.786705    141.57341 
   36900    72085    299.16431   -319.52748   -7996672.4    64281.049   -7932391.4    708941.11    1.1541368     70.77177     70.77177    141.54354 
   37000    72085    299.28097    1473.2287   -7996648.2    64306.116   -7932342.1    708658.43    1.1545972    70.762362    70.762362    141.52472 
   37100    72085    299.54406   -248.53472   -7996248.7    64362.645   -7931886.1    708595.38    1.1546999    70.760263    70.760263    141.52053 
   37200    72085    301.20153    218.64533   -7996292.6    64718.784   -7931573.8    708138.25    1.1554453    70.745044    70.745044    141.49009 
   37300    72085    300.68737   -143.39828   -7996293.6    64608.307   -7931685.3    707497.35     1.156492    70.723695    70.723695    141.44739 
   37400    72085    299.15448   -1781.4171   -7996300.5    64278.937   -7932021.6    707115.88    1.1571159    70.710981    70.710981    141.42196 
   37500    72085    300.49876     1742.112   -7996831.2    64567.781   -7932263.4    706420.41    1.1582551    70.687792    70.687792    141.37558 
   37600    72085    299.67405   -374.42618   -7996550.4    64390.577   -7932159.8    706321.56    1.1584171    70.684494    70.684494    141.36899 
   37700    72085    300.47564    83.469313   -7996475.3    64562.814   -7931912.5    705713.06     1.159416     70.66419     70.66419    141.32838 
   37800    72085    299.93712    691.43942   -7996338.4    64447.102   -7931891.3     705742.9     1.159367    70.665186    70.665186    141.33037 
   37900    72085    300.12458   -725.58767   -7996595.4    64487.382     -7932108    705241.41    1.1601914    70.648444    70.648444    141.29689 
   38000    72085    299.17548   -645.48296   -7996712.2     64283.45   -7932428.7    705036.28    1.1605289    70.641594    70.641594    141.28319 
   38100    72085    298.97882   -465.27549   -7996812.1    64241.194     -7932571    705212.28    1.1602393    70.647472    70.647472    141.29494 
   38200    72085    299.50867   -1254.2669   -7996697.3    64355.043   -7932342.3    705326.98    1.1600506    70.651302    70.651302     141.3026 
   38300    72085    300.76842   -311.27075   -7996672.3    64625.722   -7932046.6     705146.1    1.1603482    70.645262    70.645262    141.29052 
   38400    72085    300.42082   -104.94679     -7996498    64551.034     -7931947    705221.46    1.1602242    70.647778    70.647778    141.29556 
   38500    72085    300.89007   -148.84805   -7996627.4    64651.861   -7931975.5     705422.2    1.1598941    70.654481    70.654481    141.30896 
   38600    72085    299.65463    -137.7678   -7996656.4    64386.403     -7932270    705756.33    1.1593449    70.665635    70.665635    141.33127 
   38700    72085    297.83742   -61.412665   -7996692.9    63995.943     -7932697     705868.5    1.1591607    70.669378    70.669378    141.33876 
   38800    72085    298.45667    -523.2768   -7996592.4        64129   -7932463.4    706643.29    1.1578897    70.695225    70.695225    141.39045 
   38900    72085      300.567    386.84911   -7996487.3    64582.445   -7931904.9    706430.25    1.1582389     70.68812     70.68812    141.37624 
   39000    72085    300.64584    345.92878   -7996159.4    64599.384     -7931560    706724.05    1.1577574    70.697918    70.697918    141.39584 
   39100    72085    301.39969    324.69573     -7996373    64761.364   -7931611.7    706508.31    1.1581109    70.690723    70.690723    141.38145 
   39200    72085    302.16811    1011.6516   -7996665.8    64926.472   -7931739.3    705962.39    1.1590065    70.672511    70.672511    141.34502 
   39300    72085    298.76629   -145.96925   -7996224.1    64195.527   -7932028.6    706287.08    1.1584737    70.683344    70.683344    141.36669 
   39400    72085    299.68142   -116.45571   -7996622.5    64392.161   -7932230.3    706049.64    1.1588633    70.675422    70.675422    141.35084 
   39500    72085    299.39302   -1055.1636   -7996706.7    64330.192   -7932376.5    706061.63    1.1588436    70.675823    70.675823    141.35165 
   39600    72085    299.99668    728.06356   -7996710.4    64459.899   -7932250.5    706047.74    1.1588664    70.675359    70.675359    141.35072 
   39700    72085    299.71256    208.10398   -7996379.7    64398.851   -7931980.8    706092.45     1.158793    70.676851    70.676851     141.3537 
   39800    72085    300.40447    211.00492   -7996274.5    64547.522     -7931727    705302.43     1.160091    70.650482    70.650482    141.30096 
   39900    72085    300.82979    633.17303   -7996481.3     64638.91   -7931842.4    705519.57     1.159734    70.657731    70.657731    141.31546 
   40000    72085    299.83165    390.79844   -7996715.5     64424.44     -7932291    705500.45    1.1597654    70.657093    70.657093    141.31419 
   40100    72085     298.2245    43.034809   -7996732.8    64079.113   -7932653.7    706024.28    1.1589049    70.674576    70.674576    141.34915 
   40200    72085    300.51188   -533.16078   -7997120.2    64570.601   -7932549.6    706440.69    1.1582218    70.688468    70.688468    141.37694 
   40300    72085    300.11769    375.51828   -7996572.1    64485.901   -7932086.2    706570.84    1.1580085    70.692809    70.692809    141.38562 
   40400    72085    300.59217    601.64623   -7996190.6    64587.851   -7931602.7    705790.01    1.1592896    70.666758    70.666758    141.33352 
   40500    72085    300.70231    564.67401   -7996098.7    64611.517   -7931487.2    705865.31    1.1591659    70.669272    70.669272    141.33854 
   40600    72085     299.7951    715.81691   -7996424.1    64416.588   -7932007.5    706028.54    1.1588979    70.674718    70.674718    141.34944 
   40700    72085    299.28879   -580.24596   -7996931.3    64307.796   -7932623.5    705985.42    1.1589687     70.67328     70.67328    141.34656 
   40800    72085     298.9214   -523.79526   -7997060.7    64228.856   -7932831.8    705988.98    1.1589629    70.673398    70.673398     141.3468 
   40900    72085    298.86837    685.23177   -7996715.4    64217.461   -7932497.9    704940.07    1.1606873     70.63838     70.63838    141.27676 
   41000    72085    299.23356    1354.5695   -7996229.9     64295.93   -7931933.9    704610.79    1.1612297     70.62738     70.62738    141.25476 
   41100    72085    302.16192    631.03762   -7996564.4    64925.143   -7931639.3    703862.41    1.1624644    70.602367    70.602367    141.20473 
   41200    72085    300.63565   -9.2241826     -7996562    64597.195   -7931964.8    704002.56     1.162233    70.607052    70.607052     141.2141 
   41300    72085    299.03632   -151.73366   -7996747.1    64253.549   -7932493.5    704342.89    1.1616714    70.618428    70.618428    141.23686 
   41400    72085    299.34146    1403.4338     -7997036    64319.114   -7932716.9    704155.43    1.1619807    70.612163    70.612163    141.22433 
   41500    72085    299.19702    300.66208   -7996919.6    64288.078   -7932631.5    704108.43    1.1620583    70.610591    70.610591    141.22118 
   41600    72085    300.54804     79.00718     -7996893    64578.371   -7932314.6    703252.31    1.1634729    70.581962    70.581962    141.16392 
   41700    72085    301.40115   -1496.3721   -7996675.5    64761.676   -7931913.8    703633.43    1.1628427     70.59471     70.59471    141.18942 
   41800    72085    301.12774   -738.53773     -7996546    64702.929   -7931843.1    703488.45    1.1630824    70.589861    70.589861    141.17972 
   41900    72085    299.03252    540.04742   -7996470.5    64252.733   -7932217.7    703859.87    1.1624686    70.602282    70.602282    141.20456 
   42000    72085     299.3693   -2164.4242   -7996892.7    64325.096   -7932567.6    704255.99    1.1618148    70.615524    70.615524    141.23105 
   42100    72085    300.10873    670.37924   -7997110.1    64483.977   -7932626.1    703161.79    1.1636227    70.578933    70.578933    141.15787 
   42200    72085    298.97674   -629.24376   -7996646.7    64240.747   -7932405.9    702980.58    1.1639226     70.57287     70.57287    141.14574 
   42300    72085     301.1625   -1024.8183   -7996725.7    64710.399   -7932015.3    702359.84    1.1649513    70.552091    70.552091    141.10418 
   42400    72085    301.40058    533.35059   -7996811.3    64761.555   -7932049.8    701943.89    1.1656416    70.538161    70.538161    141.07632 
   42500    72085    300.07609   -114.89293     -7996912    64476.962   -7932435.1    702290.15    1.1650669    70.549758    70.549758    141.09952 
   42600    72085     299.8059   -840.10897   -7997139.2    64418.907   -7932720.3    701879.46    1.1657486    70.536003    70.536003    141.07201 
   42700    72085    298.59711   -338.07467   -7997043.8    64159.176   -7932884.6    701874.54    1.1657568    70.535838    70.535838    141.07168 
   42800    72085    299.76752    710.16726   -7997187.8     64410.66   -7932777.2     701912.8    1.1656932     70.53712     70.53712    141.07424 
   42900    72085    301.00794    40.762541   -7997159.6    64677.188   -7932482.4    701991.87    1.1655619    70.539768    70.539768    141.07954 
   43000    72085    300.78712     1580.873   -7997106.4    64629.742   -7932476.7     702509.8    1.1647026    70.557112    70.557112    141.11422 
   43100    72085    298.46763    1197.2623   -7996826.5    64131.355   -7932695.2    702237.62    1.1651541    70.547999    70.547999      141.096 
   43200    72085    298.73219   -441.55577   -7996914.7    64188.202   -7932726.5    702526.22    1.1646754    70.557662    70.557662    141.11532 
   43300    72085    299.93259    2710.9042   -7996823.3    64446.129   -7932377.2    701945.34    1.1656392     70.53821     70.53821    141.07642 
   43400    72085    300.21213    60.706211   -7996602.6    64506.193   -7932096.4    702065.89    1.1654391    70.542248    70.542248     141.0845 
   43500    72085    299.30111    373.77508   -7996504.4    64310.445     -7932194    701838.71    1.1658163    70.534638    70.534638    141.06928 
   43600    72085    299.49606     332.2467     -7996583    64352.334   -7932230.7    701497.85    1.1663828    70.523217    70.523217    141.04643 
   43700    72085    300.76125    616.31291   -7996991.6    64624.181   -7932367.4     701076.8    1.1670833    70.509105    70.509105    141.01821 
   43800    72085    299.08844   -146.33857   -7996825.5    64264.748   -7932560.7    700874.33    1.1674204    70.502316    70.502316    141.00463 
   43900    72085    299.60217    579.26525     -7996924    64375.133   -7932548.8    701042.03    1.1671412    70.507939    70.507939    141.01588 
   44000    72085    301.70464   -353.51292   -7997310.4    64826.887   -7932483.6    701281.67    1.1667423    70.515972    70.515972    141.03194 
   44100    72085    300.90182    731.95054   -7996845.6    64654.387   -7932191.2     701295.1      1.16672    70.516422    70.516422    141.03284 
   44200    72085    301.55332   -408.17437   -7996662.9    64794.373   -7931868.5    702073.79    1.1654259    70.542512    70.542512    141.08502 
   44300    72085    300.22191    -246.2695   -7996664.3    64508.294     -7932156    701521.41    1.1663436    70.524007    70.524007    141.04801 
   44400    72085    299.51495    363.60151   -7996886.4    64356.391     -7932530       700926    1.1673344    70.504049    70.504049     141.0081 
   44500    72085    300.91413    415.63323   -7997199.5    64657.032   -7932542.5    701185.61    1.1669022    70.512752    70.512752     141.0255 
   44600    72085    299.80924    298.87733   -7997031.7    64419.626   -7932612.1    701837.31    1.1658186    70.534591    70.534591    141.06918 
   44700    72085    300.70677    547.59084   -7997148.5    64612.476   -7932536.1     702047.1    1.1654703    70.541618    70.541618    141.08324 
   44800    72085    301.24658     240.6713   -7996822.3    64728.464   -7932093.8    702446.84     1.164807    70.555004    70.555004    141.11001 
   44900    72085     302.5123    411.59139   -7997050.4    65000.428     -7932050    702807.56    1.1642092    70.567079    70.567079    141.13416 
   45000    72085     299.4064   -834.52992   -7996802.2    64333.067   -7932469.1    702881.07    1.1640874    70.569539    70.569539    141.13908 
   45100    72085    299.57202    159.33351   -7996914.7    64368.654     -7932546    701867.47    1.1657685    70.535601    70.535601     141.0712 
   45200    72085    300.87249   -532.06106     -7997238    64648.085     -7932590    701788.29    1.1659001    70.532949    70.532949     141.0659 
   45300    72085    299.33065    310.39736   -7997290.1    64316.792   -7932973.3    701435.84    1.1664859    70.521139    70.521139    141.04228 
   45400    72085    298.30944    435.94781   -7997330.9    64097.365   -7933233.5     700864.7    1.1674365    70.501994    70.501994    141.00399 
   45500    72085    300.02207   -1067.3373   -7997513.5    64465.356   -7933048.2    701194.96    1.1668866    70.513066    70.513066    141.02613 
   45600    72085    298.78369    67.965853   -7997116.1    64199.267   -7932916.8    700539.24    1.1679788    70.491079    70.491079    140.98216 
   45700    72085    299.50299    443.25202   -7997038.6    64353.821   -7932684.8    700225.47    1.1685022    70.480553    70.480553    140.96111 
   45800    72085    298.74619    810.85728   -7996874.6    64191.209   -7932683.4    700499.28    1.1680455    70.489739    70.489739    140.97948 
   45900    72085    299.93856    2571.2999   -7997122.4    64447.412     -7932675    700610.48    1.1678601    70.493468    70.493468    140.98694 
   46000    72085    301.58079    -760.0006   -7997026.3    64800.277     -7932226    701292.32    1.1667246    70.516329    70.516329    141.03266 
   46100    72085    300.99926   -906.10415   -7996798.3    64675.324     -7932123    701859.83    1.1657812    70.535345    70.535345    141.07069 
   46200    72085    299.74897    253.59449   -7996870.5    64406.676   -7932463.8    701763.91    1.1659406    70.532132    70.532132    141.06426 
   46300    72085    300.52126    278.58824     -7997266    64572.617   -7932693.4     701937.6    1.1656521    70.537951    70.537951     141.0759 
   46400    72085      301.399    473.73159     -7997563    64761.214   -7932801.8    702197.18    1.1652211    70.546645    70.546645    141.09329 
   46500    72085    298.97632    1528.7503   -7997004.1    64240.656   -7932763.4    701055.13    1.1671194    70.508378    70.508378    141.01676 
   46600    72085    299.53285    202.83573   -7997031.9    64360.237   -7932671.6    701400.37    1.1665449    70.519951    70.519951     141.0399 
   46700    72085    299.47818    431.25531   -7996890.1    64348.491   -7932541.6    700747.03    1.1676325    70.498048    70.498048     140.9961 
   46800    72085    302.55334   -164.98441   -7997388.7    65009.246   -7932379.4    700239.23    1.1684793    70.481015    70.481015    140.96203 
   46900    72085    300.44406   -115.74484     -7997334    64556.029   -7932777.9    700476.66    1.1680832     70.48898     70.48898    140.97796 
   47000    72085    298.88703    832.50495   -7997223.2     64221.47   -7933001.7    699792.99    1.1692244     70.46604     70.46604    140.93208 
   47100    72085    300.12279    407.80814   -7997360.9    64486.998   -7932873.9    698956.13    1.1706243    70.437939    70.437939    140.87588 
   47200    72085    299.52525    669.44593     -7997080    64358.604   -7932721.4    698427.06     1.171511    70.420162    70.420162    140.84032 
   47300    72085    301.03701   -746.68281   -7997256.9    64683.435   -7932573.5    698165.75    1.1719495    70.411379    70.411379    140.82276 
   47400    72085    299.90443    346.65826   -7997484.4    64440.078   -7933044.3    698732.82    1.1709984    70.430437    70.430437    140.86087 
   47500    72085    298.82294   -315.15878   -7997474.5    64207.699   -7933266.8    698779.91    1.1709195    70.432019    70.432019    140.86404 
   47600    72085    299.25801   -49.863067   -7997336.9    64301.182   -7933035.7    698972.15    1.1705974    70.438477    70.438477    140.87695 
   47700    72085    299.73551   -776.77597   -7997158.8    64403.783     -7932755    699215.62    1.1701898    70.446655    70.446655    140.89331 
   47800    72085    299.79869   -622.57104   -7996883.8    64417.358   -7932466.4     699470.1    1.1697641      70.4552      70.4552     140.9104 
   47900    72085    298.92155    266.56472   -7996665.8    64228.889     -7932437    699641.16    1.1694781    70.460943    70.460943    140.92189 
   48000    72085    300.57582    575.44774   -7997057.5    64584.338   -7932473.2    699551.63    1.1696278    70.457937    70.457937    140.91587 
   48100    72085    299.97534     -499.216   -7997302.4    64455.315   -7932847.1    699829.14     1.169164    70.467253    70.467253    140.93451 
   48200    72085    299.38352   -286.14887   -7997451.8    64328.152   -7933123.7    699724.95    1.1693381    70.463756    70.463756    140.92751 
   48300    72085    299.01007    83.085957   -7997151.7    64247.909   -7932903.8    699097.11    1.1703882    70.442675    70.442675    140.88535 
   48400    72085    301.14501   -937.01171   -7997279.2    64706.639   -7932572.6    699216.37    1.1701886     70.44668     70.44668    140.89336 
   48500    72085     300.7865   -293.58625   -7997273.7    64629.608   -7932644.1    698887.47    1.1707393    70.435633    70.435633    140.87127 
   48600    72085    300.52792   -797.19179   -7997558.9    64574.048   -7932984.9     699068.2    1.1704366    70.441704    70.441704    140.88341 
   48700    72085    297.82517   -433.07953   -7997349.3    63993.311   -7933355.9     699301.6     1.170046    70.449542    70.449542    140.89908 
   48800    72085    297.71886   -157.88231   -7997108.8    63970.469   -7933138.4     699188.6    1.1702351    70.445747    70.445747    140.89149 
   48900    72085    299.92298     1201.516   -7997317.4    64444.064   -7932873.3    699176.88    1.1702547    70.445354    70.445354    140.89071 
   49000    72085     299.8976   -146.87215   -7997264.5    64438.612   -7932825.9     699236.9    1.1701542     70.44737     70.44737    140.89474 
   49100    72085    301.90337   -507.93785   -7997554.9    64869.588   -7932685.3    698939.09    1.1706528    70.437367    70.437367    140.87473 
   49200    72085    300.27069   -984.79307   -7997366.7    64518.777   -7932847.9    698991.35    1.1705653    70.439122    70.439122    140.87824 
   49300    72085    300.42043   -351.97353   -7997650.6    64550.951   -7933099.7    698875.03    1.1707601    70.435215    70.435215    140.87043 
   49400    72085    299.17423     68.93559   -7997555.5    64283.181   -7933272.3    699053.61     1.170461    70.441213    70.441213    140.88243 
   49500    72085     298.9091    627.59958   -7997277.1    64226.214   -7933050.9    699261.01    1.1701139    70.448179    70.448179    140.89636 
   49600    72085     301.7936   -1276.0691   -7997453.5    64846.001   -7932607.5     699865.2    1.1691037    70.468463    70.468463    140.93693 
   49700    72085    300.73069   -850.35874   -7997239.2    64617.616   -7932621.6    699865.08    1.1691039    70.468459    70.468459    140.93692 
   49800    72085    300.36041    310.02499   -7997378.2    64538.054   -7932840.1    700117.95    1.1686817    70.476945    70.476945    140.95389 
   49900    72085    298.59946    245.58817   -7997370.6    64159.681   -7933210.9    700247.82    1.1684649    70.481303    70.481303    140.96261 
   50000    72085    298.84841   -151.81081   -7997298.4    64213.173   -7933085.2    700370.48    1.1682603    70.485418    70.485418    140.97084 
   50100    72085    299.73646   -204.56766   -7997160.2    64403.987   -7932756.2    700590.33    1.1678937    70.492792    70.492792    140.98558 
   50200    72085    300.84473    -36.78315   -7997260.7    64642.119   -7932618.6    700331.26    1.1683257    70.484102    70.484102     140.9682 
   50300    72085    300.90864    715.10935   -7997178.6    64655.852   -7932522.8    700030.74    1.1688273    70.474019    70.474019    140.94804 
   50400    72085    301.38682   -1065.0821     -7997456    64758.598   -7932697.4    700472.61    1.1680899    70.488844    70.488844    140.97769 
   50500    72085    300.04917     -1252.76   -7997583.3    64471.178   -7933112.1    699888.95     1.169064     70.46926     70.46926    140.93852 
   50600    72085    299.18594    369.24167   -7997370.1    64285.698   -7933084.4    700238.82    1.1684799    70.481001    70.481001      140.962 
   50700    72085    299.81068   -1458.1826   -7997264.7    64419.935   -7932844.8    700227.12    1.1684995    70.480608    70.480608    140.96122 
   50800    72085    300.33779    1224.5492   -7997297.6    64533.195   -7932764.4    700029.74    1.1688289    70.473985    70.473985    140.94797 
   50900    72085    300.37114   -976.13868   -7997394.6    64540.361   -7932854.3    700148.95    1.1686299    70.477985    70.477985    140.95597 
   51000    72085    300.00336     2505.868     -7997458    64461.335   -7932996.6    699384.57    1.1699072    70.452328    70.452328    140.90466 
[...]
  187600    72085    300.35485    816.71655   -7999824.9    64536.859   -7935288.1    687456.75    1.1902058    70.049514    70.049514    140.09903 
  187700    72085    299.61723    988.29457   -7999693.7    64378.368   -7935315.3    687681.99     1.189816    70.057164    70.057164    140.11433 
  187800    72085    299.94207   -1285.2271   -7999545.8    64448.167   -7935097.6     687749.4    1.1896993    70.059453    70.059453    140.11891 
  187900    72085    302.01014   -863.90382   -7999457.4    64892.529   -7934564.9    687945.21    1.1893607    70.066101    70.066101     140.1322 
  188000    72085    302.05991   -1757.7319   -7999427.8    64903.224   -7934524.6    687643.53    1.1898825    70.055858    70.055858    140.11172 
  188100    72085    300.33595   -786.21353   -7999362.3    64532.799   -7934829.5    687705.93    1.1897745    70.057977    70.057977    140.11595 
  188200    72085    300.05908   -1995.6057   -7999634.3    64473.308     -7935161    687923.87    1.1893976    70.065377    70.065377    140.13075 
  188300    72085    299.58295   -1031.0333   -7999721.9    64371.001   -7935350.9    687844.15    1.1895355     70.06267     70.06267    140.12534 
  188400    72085    300.60392   -153.05186   -8000014.4    64590.378     -7935424    687628.61    1.1899083    70.055351    70.055351     140.1107 
  188500    72085    300.46052    501.69177   -7999830.9    64559.565   -7935271.3    687670.17    1.1898364    70.056762    70.056762    140.11352 
  188600    72085    300.22992   -467.54654   -7999369.9    64510.015   -7934859.9    687955.91    1.1893422    70.066464    70.066464    140.13293 
  188700    72085    301.19115   -938.47019   -7999548.8    64716.555   -7934832.2    688513.65    1.1883788    70.085394    70.085394    140.17079 
  188800    72085    299.51349   -530.34733   -7999647.2    64356.079   -7935291.1     688643.5    1.1881547      70.0898      70.0898     140.1796 
  188900    72085    299.90903   -305.56717   -7999893.8    64441.066   -7935452.7    688407.89    1.1885613    70.081805    70.081805    140.16361 
  189000    72085    299.33898     791.9987   -7999734.6    64318.581     -7935416    688013.96    1.1892419    70.068435    70.068435    140.13687 
  189100    72085    298.65934   -933.30935     -7999435    64172.548   -7935262.4     688188.7    1.1889399    70.074366    70.074366    140.14873 
  189200    72085    300.63847   -818.01818     -7999437      64597.8   -7934839.2    687841.31    1.1895404    70.062573    70.062573    140.12515 
  189300    72085    301.34873   -704.69679   -7999319.4    64750.413     -7934569    687787.55    1.1896334    70.060748    70.060748     140.1215 
  189400    72085    300.48062   -498.41439   -7999237.3    64563.884   -7934673.4    688027.83    1.1892179    70.068906    70.068906    140.13781 
  189500    72085    301.93177   -177.72808   -7999708.8    64875.691   -7934833.2    687988.58    1.1892857    70.067573    70.067573    140.13515 
  189600    72085    299.60881    -776.5344   -7999606.9    64376.558   -7935230.3    688364.29    1.1886366    70.080326    70.080326    140.16065 
  189700    72085    299.90597   -163.03392     -7999909     64440.41   -7935468.6    688018.64    1.1892338    70.068594    70.068594    140.13719 
  189800    72085     298.6914   -247.06207   -7999742.5    64179.436   -7935563.1    687976.59    1.1893065    70.067167    70.067167    140.13433 
  189900    72085    300.07989    1030.7502   -7999800.1     64477.78   -7935322.3    687765.94    1.1896707    70.060014    70.060014    140.12003 
  190000    72085    300.59369    1669.8218   -7999439.2    64588.178     -7934851    687761.07    1.1896791    70.059849    70.059849     140.1197 
  190100    72085    300.96774   -1627.7815     -7999584     64668.55   -7934915.5    687880.03    1.1894734    70.063888    70.063888    140.12778 
  190200    72085    299.82254    958.29576   -7999627.5    64422.484     -7935205    687763.05    1.1896757    70.059917    70.059917    140.11983 
  190300    72085    298.73016   -586.60281     -7999491    64187.765   -7935303.2    687833.91    1.1895532    70.062322    70.062322    140.12464 
  190400    72085    298.88623    285.42125   -7999536.6      64221.3   -7935315.3    687873.32     1.189485     70.06366     70.06366    140.12732 
  190500    72085     299.5155   -12.632967   -7999665.3    64356.509   -7935308.8     687773.9     1.189657    70.060285    70.060285    140.12057 
  190600    72085    299.96536    933.06176   -7999735.1    64453.171   -7935281.9    687329.78    1.1904257    70.045202    70.045202     140.0904 
  190700    72085    300.48823   -1144.2195     -7999825    64565.519   -7935259.5    687212.54    1.1906288    70.041219    70.041219    140.08244 
  190800    72085    300.71961   -267.26139   -7999786.3    64615.235   -7935171.1     686718.1     1.191486    70.024417    70.024417    140.04883 
  190900    72085     300.3934    157.09446   -7999759.8    64545.144   -7935214.7    686492.35    1.1918778    70.016742    70.016742    140.03348 
  191000    72085    300.06459    916.48806   -7999933.4    64474.492   -7935458.9    686002.98    1.1927281    70.000101    70.000101     140.0002 
  191100    72085    297.79507   -1917.9145   -7999765.4    63986.842   -7935778.5    686097.02    1.1925646      70.0033      70.0033     140.0066 
  191200    72085     299.3938    1038.3713   -7999854.4     64330.36     -7935524    686376.45    1.1920791    70.012802    70.012802     140.0256 
  191300    72085    299.17497   -603.96852     -7999518    64283.341   -7935234.7    686327.69    1.1921638    70.011144    70.011144    140.02229 
  191400    72085    299.72451    256.73237   -7999521.9    64401.419   -7935120.5    686717.19    1.1914876    70.024386    70.024386    140.04877 
  191500    72085    300.30171   -630.63048   -7999684.1    64525.441   -7935158.7    686804.78    1.1913356    70.027363    70.027363    140.05473 
  191600    72085    300.09122   -994.90146   -7999925.4    64480.214   -7935445.2    687305.26    1.1904681    70.044368    70.044368    140.08874 
  191700    72085    299.07769   -95.412978     -8000136    64262.437   -7935873.5    687110.04    1.1908064    70.037736    70.037736    140.07547 
  191800    72085    298.77754     883.6778   -8000046.4    64197.945   -7935848.5     687181.5    1.1906825    70.040164    70.040164    140.08033 
  191900    72085    298.71459    326.94108   -7999819.1    64184.419   -7935634.7    687305.18    1.1904683    70.044366    70.044366    140.08873 
  192000    72085    300.88802    571.94118     -8000014    64651.421   -7935362.6    687173.06    1.1906972    70.039877    70.039877    140.07975 
  192100    72085    300.19102   -521.67661   -7999726.9    64501.657   -7935225.3    687238.68    1.1905835    70.042106    70.042106    140.08421 
  192200    72085    300.93784   -172.51569   -7999778.6    64662.125   -7935116.4    687295.23    1.1904855    70.044028    70.044028    140.08806 
  192300    72085    299.75129   -85.053625   -7999533.1    64407.174   -7935125.9    687287.67    1.1904986    70.043771    70.043771    140.08754 
  192400    72085    299.50364   -2268.6565     -7999705     64353.96     -7935351    687315.91    1.1904497     70.04473     70.04473    140.08946 
  192500    72085    298.84984   -1100.4655   -7999816.7    64213.481   -7935603.2    687532.44    1.1900748    70.052085    70.052085    140.10417 
  192600    72085    299.20519     258.9312   -7999927.3    64289.833   -7935637.5     687618.6    1.1899257    70.055011    70.055011    140.11002 
  192700    72085    300.05044    493.62252   -7999728.4    64471.452     -7935257    687828.88    1.1895619    70.062152    70.062152     140.1243 
  192800    72085    302.11218    122.93249   -7999876.2    64914.454   -7934961.8    687698.04    1.1897882    70.057709    70.057709    140.11542 
  192900    72085    300.10702    381.98379   -7999630.2    64483.609   -7935146.6    687557.66    1.1900311    70.052942    70.052942    140.10588 
  193000    72085    299.15673   -1926.9157   -7999590.6    64279.421   -7935311.2    688155.71    1.1889969    70.073247    70.073247    140.14649 
  193100    72085    299.14722    316.81634   -7999682.4    64277.379     -7935405    688309.21    1.1887318    70.078457    70.078457    140.15691 
  193200    72085    300.14536     2249.374     -7999864    64491.847   -7935372.2    688387.42    1.1885967    70.081111    70.081111    140.16222 
  193300    72085    301.44895    1340.2113   -7999876.5    64771.947   -7935104.5    688698.76    1.1880594    70.091674    70.091674    140.18335 
  193400    72085    300.82139    -480.9684   -7999534.9    64637.105   -7934897.8    688320.94    1.1887115    70.078855    70.078855    140.15771 
  193500    72085    299.27917   -580.36352     -7999370     64305.73   -7935064.3    688012.47    1.1892444    70.068385    70.068385    140.13677 
  193600    72085    299.88818   -373.10384   -7999901.6    64436.588     -7935465    686877.26    1.1912099    70.029826    70.029826    140.05965 
  193700    72085    299.53167    230.49209   -7999961.2    64359.983   -7935601.3    686640.01    1.1916215    70.021762    70.021762    140.04352 
  193800    72085    298.28867    1237.2716   -7999702.3    64092.902   -7935609.4    687026.64    1.1909509    70.034902    70.034902     140.0698 
  193900    72085    299.44942   -1010.4558   -7999772.5    64342.311   -7935430.2       687093    1.1908359    70.037157    70.037157    140.07431 
  194000    72085    299.32786    475.51716   -7999629.2    64316.192     -7935313    687229.25    1.1905998    70.041786    70.041786    140.08357 
  194100    72085    299.42782   -817.10664   -7999491.6     64337.67   -7935153.9    687436.62    1.1902407     70.04883     70.04883    140.09766 
  194200    72085    301.24798   -1379.5376   -7999681.6    64728.766   -7934952.8    687472.87    1.1901779    70.050062    70.050062    140.10012 
  194300    72085    298.53685   -88.580945   -7999452.8    64146.227   -7935306.6     687272.9    1.1905242    70.043269    70.043269    140.08654 
  194400    72085    298.63915    1332.1391     -7999873    64168.209   -7935704.8    687234.58    1.1905906    70.041967    70.041967    140.08393 
  194500    72085    298.61254    410.81342   -7999740.8    64162.491   -7935578.3    686822.01    1.1913057    70.027948    70.027948     140.0559 
  194600    72085    300.30663    1275.1158   -7999743.7    64526.499   -7935217.2    686816.84    1.1913147    70.027772    70.027772    140.05554 
  194700    72085    300.47737    1473.1319   -7999588.7    64563.186   -7935025.5    687032.58    1.1909406    70.035104    70.035104    140.07021 
  194800    72085    300.66608    -235.3594   -7999766.5    64603.734   -7935162.8    687309.12    1.1904615      70.0445      70.0445      140.089 
  194900    72085    299.61885   -26.154259   -7999791.1    64378.716   -7935412.4    687082.01    1.1908549    70.036784    70.036784    140.07357 
  195000    72085    300.15552   -370.07872   -7999986.3    64494.029   -7935492.3    687086.47    1.1908472    70.036935    70.036935    140.07387 
  195100    72085    301.16775    -2.465465   -8000144.9    64711.527   -7935433.4    686882.85    1.1912002    70.030016    70.030016    140.06003 
  195200    72085     299.8963    1077.1634     -7999875    64438.332   -7935436.6    686589.92    1.1917085    70.020059    70.020059    140.04012 
  195300    72085      300.487    2117.7165   -8000137.7    64565.254   -7935572.4     686959.4    1.1910675    70.032618    70.032618    140.06524 
  195400    72085    299.87346   -183.61468   -8000219.7    64433.424   -7935786.3    687085.19    1.1908494    70.036892    70.036892    140.07378 
  195500    72085     298.7805   -194.27513   -8000011.7     64198.58   -7935813.1    687263.71    1.1905401    70.042957    70.042957    140.08591 
  195600    72085    301.48079   -1304.7257   -8000302.9    64778.788   -7935524.1    687396.43    1.1903102    70.047465    70.047465    140.09493 
  195700    72085    301.50385      827.344   -8000041.1    64783.745   -7935257.4    686929.36    1.1911196    70.031597    70.031597    140.06319 
  195800    72085    299.25468   -1079.6882   -7999557.2    64300.468   -7935256.8    687053.11     1.190905    70.035802    70.035802     140.0716 
  195900    72085    300.20013   -2020.4326   -7999890.2    64503.614   -7935386.6    687286.94    1.1904999    70.043746    70.043746    140.08749 
  196000    72085    298.78289    1844.3722   -7999846.8    64199.095   -7935647.7    686653.58     1.191598    70.022223    70.022223    140.04445 
  196100    72085    298.94228    -217.6036   -7999838.4    64233.343   -7935605.1    686632.22     1.191635    70.021497    70.021497    140.04299 
  196200    72085    300.60616    809.70222   -7999833.8    64590.859   -7935242.9    686410.54    1.1920199    70.013961    70.013961    140.02792 
  196300    72085     300.9362    1140.4889   -7999691.8    64661.774   -7935030.1    686180.34    1.1924198    70.006134    70.006134    140.01227 
  196400    72085    299.82752   -48.882702   -7999575.4    64423.554   -7935151.9    686685.17    1.1915432    70.023297    70.023297    140.04659 
  196500    72085    299.35116    1001.3081   -8000058.4    64321.197   -7935737.2    687121.27    1.1907869    70.038118    70.038118    140.07624 
  196600    72085    299.94765     284.9536   -8000284.8    64449.365   -7935835.5     687929.6    1.1893877    70.065571    70.065571    140.13114 
  196700    72085    299.38036    808.59387   -7999969.8    64327.471   -7935642.3     688181.5    1.1889523    70.074122    70.074122    140.14824 
  196800    72085    300.94533   -424.02021   -7999991.5    64663.734   -7935327.8    688249.98     1.188834    70.076446    70.076446    140.15289 
  196900    72085    300.69642   -1379.1487   -7999751.1    64610.252   -7935140.8    688411.21    1.1885556    70.081918    70.081918    140.16384 
  197000    72085     299.7368    1505.0767     -7999578     64404.06     -7935174    688115.18    1.1890669    70.071871    70.071871    140.14374 
  197100    72085    298.37943    -1870.033   -7999822.2    64112.404   -7935709.8       687706    1.1897744    70.057979    70.057979    140.11596 
  197200    72085    299.54733    977.70661   -8000228.3    64363.348   -7935864.9    686972.51    1.1910448    70.033063    70.033063    140.06613 
  197300    72085    299.61436    46.999927   -7999999.8    64377.752     -7935622    686940.49    1.1911003    70.031975    70.031975    140.06395 
  197400    72085    300.92718    1006.0722   -7999998.2    64659.835   -7935338.4    686550.23    1.1917773     70.01871     70.01871    140.03742 
  197500    72085    300.34011    789.97782   -7999837.9    64533.693   -7935304.2    686088.95    1.1925786    70.003025    70.003025    140.00605 
  197600    72085    300.07385    -2158.932   -8000007.9    64476.482   -7935531.4    686536.06    1.1918019    70.018229    70.018229    140.03646 
  197700    72085     299.6362    975.39519   -8000454.9    64382.445   -7936072.5    686606.88     1.191679    70.020636    70.020636    140.04127 
  197800    72085    298.47362   -401.42255   -8000115.9    64132.643   -7935983.3    687366.66    1.1903618    70.046454    70.046454    140.09291 
  197900    72085    300.07096   -286.49187   -8000056.2     64475.86   -7935580.3    687286.31     1.190501    70.043725    70.043725    140.08745 
  198000    72085    301.22289    96.259852   -8000075.6    64723.374   -7935352.2    688207.47    1.1889075    70.075004    70.075004    140.15001 
  198100    72085     299.8425   -1115.0911   -7999817.4    64426.772   -7935390.6    688445.08    1.1884971    70.083067    70.083067    140.16613 
  198200    72085    299.82937   -683.24091   -7999819.8    64423.949   -7935395.8     688716.3    1.1880291    70.092269    70.092269    140.18454 
  198300    72085     299.0069    534.95953   -7999533.7    64247.227   -7935286.4     688828.8    1.1878351    70.096086    70.096086    140.19217 
  198400    72085    300.57491   -305.73988     -7999855    64584.143   -7935270.9    688791.63    1.1878992    70.094825    70.094825    140.18965 
  198500    72085    298.97179   -848.25405   -7999719.8    64239.682   -7935480.1    688540.01    1.1883333    70.086289    70.086289    140.17258 
  198600    72085    299.65569      595.224   -8000073.8    64386.632   -7935687.1    687770.93    1.1896621    70.060184    70.060184    140.12037 
  198700    72085    298.98425    1580.0683   -8000152.4     64242.36     -7935910    686851.84     1.191254    70.028962    70.028962    140.05792 
  198800    72085    299.33256   -371.02938   -8000185.5    64317.201   -7935868.3    686874.29    1.1912151    70.029725    70.029725    140.05945 
  198900    72085    300.90027   -952.67445   -7999983.4    64654.053   -7935329.4    686853.61    1.1912509    70.029022    70.029022    140.05804 
  199000    72085      301.579    823.00376     -8000011    64799.891   -7935211.1    686644.09    1.1916144    70.021901    70.021901     140.0438 
  199100    72085    302.39935    585.12238   -8000322.7    64976.159   -7935346.5    686541.83    1.1917919    70.018425    70.018425    140.03685 
  199200    72085    301.19214   -1435.1403   -8000434.9    64716.766   -7935718.1    686524.47    1.1918221    70.017835    70.017835    140.03567 
  199300    72085     299.8245   -485.40325   -8000442.6    64422.904   -7936019.7    687006.81    1.1909853    70.034228    70.034228    140.06846 
  199400    72085    299.74366    33.256953     -8000353    64405.534   -7935947.5    687144.89     1.190746     70.03892     70.03892    140.07784 
  199500    72085    298.82409   -2042.4745   -7999989.6    64207.948   -7935781.6    687398.23    1.1903071    70.047526    70.047526    140.09505 
  199600    72085    300.01864    1492.8338   -7999988.5    64464.619   -7935523.9    687105.57    1.1908141    70.037584    70.037584    140.07517 
  199700    72085    300.86379    1165.9499   -8000011.4    64646.214   -7935365.2    686776.74    1.1913843     70.02641     70.02641    140.05282 
  199800    72085    299.36481    1665.6424   -7999641.6    64324.132   -7935317.5    686451.74    1.1919483    70.015362    70.015362    140.03072 
  199900    72085    299.10606     952.3291   -7999499.8    64268.533   -7935231.3    686345.25    1.1921333    70.011741    70.011741    140.02348 
  200000    72085    299.76539     860.4948   -7999718.3    64410.203   -7935308.1    686079.07    1.1925958    70.002689    70.002689    140.00538 
Loop time of 94913.5 on 56 procs for 200000 steps with 72085 atoms

Performance: 0.046 ns/day, 527.297 hours/ns, 2.107 timesteps/s
96.2% CPU use with 56 MPI tasks x no OpenMP threads

MPI task timing breakdown:
Section |  min time  |  avg time  |  max time  |%varavg| %total
---------------------------------------------------------------
Pair    | 43609      | 49301      | 52392      | 943.6 | 51.94
Neigh   | 2827.1     | 3490.6     | 3863.1     | 371.0 |  3.68
Comm    | 2330.5     | 5263.3     | 10895      |2885.1 |  5.55
Output  | 9.2325     | 9.2924     | 9.3686     |   1.9 |  0.01
Modify  | 36222      | 36842      | 37546      | 190.6 | 38.82
Other   |            | 6.969      |            |       |  0.01

Nlocal:    1287.23 ave 1398 max 1084 min
Histogram: 1 1 3 1 6 8 11 12 8 5
Nghost:    13188.4 ave 13656 max 12367 min
Histogram: 2 1 5 3 3 5 11 9 11 6
Neighs:    1.22768e+06 ave 1.37356e+06 max 929667 min
Histogram: 1 1 2 3 4 6 12 8 12 7

Total # of neighbors = 68750205
Ave neighs/atom = 953.738
Neighbor list builds = 20000
Dangerous builds not checked
write_restart	restart.npt_equi
unfix npt_equi
undump npt_dump


Please see the log.cite file for references relevant to this simulation

Total wall time: 26:22:51
