LAMMPS (2 Aug 2019)
# two cnt horizontal with 10% -OH functionalization
# lammps code to simulate tension test on RVE of nanocomposite with crack
# crack needs to be initiated first
# system is already equilibrated
# delete some atoms from a region to intiate a crack
# no cnt fix in MS equilibration
# load equilibrated structure

read_restart    restart.npt_equi
  restoring atom style charge from restart
  orthogonal box = (-0.183061 1.74652 2.00886) to (69.8196 71.7492 142.014)
  2 by 4 by 7 MPI processor grid
  pair style reax/c stores no restart info
  72085 atoms
  read_restart CPU = 0.364217 secs

# ReaxFF potential to define interatomic interactions

pair_style	reax/c control_file lgvdw yes
pair_coeff	* * ffield.reax.lg C C H O C C C O O C C
Reading potential file ffield.reax.lg with DATE: 2012-01-06

neighbor	4 bin
neigh_modify	every 10 delay 0 check no

thermo 100
thermo_style custom step atoms temp press pe ke etotal vol density lx ly lz      #output variables

compute pnc_temp all temp
compute pnc_pe all pe/atom
compute pnc_stress all stress/atom pnc_temp pair bond
compute pnc_str all reduce sum c_pnc_stress[3]

variable tmpz equal "lz"
variable L0z equal ${tmpz}
variable L0z equal 140.005378658068
variable tmpx equal "lx"
variable L0x equal ${tmpx}
variable L0x equal 70.0026893290342
variable tmpy equal "ly"
variable L0y equal ${tmpy}
variable L0y equal 70.0026893290342

# define groups of atoms to delete

fix std all qeq/reax 1 0.0 10.0 1e-6 reax/c

region atoms_for_deletion block EDGE 20.0 EDGE EDGE 69.75693 72.25693              # NOTE: box size will change after equilibration
delete_atoms region atoms_for_deletion
Deleted 357 atoms, new total = 71728
reset_ids
Resetting atom IDs ...
Unused restart file global fix info:
  fix style: npt, fix ID: npt_equi
Neighbor list info ...
  update every 10 steps, delay 0 steps, check no
  max neighbors/atom: 2000, page size: 100000
  master list distance cutoff = 14
  ghost atom cutoff = 14
  binsize = 7, bins = 11 11 21
  2 neighbor lists, perpetual/occasional/extra = 2 0 0
  (1) pair reax/c, perpetual
      attributes: half, newton off, ghost
      pair build: half/bin/newtoff/ghost
      stencil: half/ghost/bin/3d/newtoff
      bin: standard
  (2) fix qeq/reax, perpetual, copy from (1)
      attributes: half, newton off, ghost
      pair build: copy
      stencil: none
      bin: none

reset_timestep 0
timestep 0.25
thermo_style custom step atoms temp press pe ke etotal vol density lx ly lz
fix 1 all npt temp 300.0 300.0 25.0 x 0.0 0.0 250.0 y 0.0 0.0 250.0 couple xy
fix 2 all deform 1 z erate 0.00001 units box
fix bd all reax/c/bonds 1000 bonds.reaxc
dump deform1 all custom 1000 dump.deform id type x y z

variable strainz equal "(lz-v_L0z)/v_L0z"
variable strainx equal "(lx-v_L0x)/v_L0x"
variable strainy equal "(ly-v_L0y)/v_L0y"
variable stressz equal "-pzz/10000"
variable p1 equal "v_stressz"
variable p2 equal "v_strainz"
variable p3 equal "v_strainx"
variable p4 equal "v_strainy"
fix 3 all print 100 "${p1} ${p2} ${p3} ${p4}" file pmma_pnc_crack.txt screen no

run 300000
Per MPI rank memory allocation (min/avg/max) = 291.5 | 325.9 | 342.2 Mbytes
Step Atoms Temp Press PotEng KinEng TotEng Volume Density Lx Ly Lz 
       0    71728    299.84213    886.06414   -7951406.1    64107.615   -7887298.5    686079.07    1.1870101    70.002689    70.002689    140.00538 
     100    71728    307.23977   -571.63374   -7953701.3    65689.264     -7888012       686353    1.1865364    70.007912    70.007912    140.04038 
     200    71728    305.58357   -496.22075   -7954501.3    65335.161   -7889166.2     686365.8    1.1865143    69.999818    69.999818    140.07538 
     300    71728    302.21636   -865.73771   -7954907.4    64615.238   -7890292.1    686291.29    1.1866431    69.987275    69.987275    140.11038 
     400    71728    300.41365   -1485.5113   -7955560.7     64229.81   -7891330.9    686540.55    1.1862123    69.991242    69.991242    140.14538 
     500    71728     300.3489   -1240.1985   -7956406.9    64215.966   -7892190.9    687008.31    1.1854046     70.00634     70.00634    140.18039 
     600    71728    300.33863   -255.14909   -7956865.3    64213.768   -7892651.6     687475.8    1.1845985    70.021413    70.021413    140.21539 
     700    71728    298.97678    1017.5916   -7956763.4    63922.599   -7892840.8     687818.8    1.1840078    70.030139    70.030139    140.25039 
     800    71728    301.33673   -3117.6782   -7957193.7    64427.167   -7892766.5    687765.84     1.184099    70.018706    70.018706    140.28539 
     900    71728    299.69634    224.26124   -7956934.2    64076.444   -7892857.8    687575.46    1.1844268    70.000282    70.000282    140.32039 
    1000    71728    301.69817   -395.65691   -7957376.3    64504.445   -7892871.8    687639.83    1.1843159     69.99483     69.99483    140.35539 
    1100    71728    299.70437     689.2403   -7956935.8    64078.161   -7892857.6    687349.42    1.1848163    69.971324    69.971324    140.39039 
    1200    71728    299.76599    1105.5137   -7957100.9    64091.336   -7893009.6    687122.65    1.1852074    69.951061    69.951061    140.42539 
    1300    71728    299.74395    975.43195   -7957076.8    64086.623   -7892990.2    686948.05    1.1855086    69.933458    69.933458     140.4604 
    1400    71728    300.64272    618.11839     -7956974    64278.785   -7892695.3    686916.63    1.1855628    69.923147    69.923147     140.4954 
    1500    71728    301.23081    778.93227   -7956939.8    64404.522   -7892535.2    686690.63     1.185953    69.902937    69.902937     140.5304 
    1600    71728    299.66695   -851.43791     -7956913    64070.162   -7892842.9    687132.56    1.1851903     69.91672     69.91672     140.5654 
    1700    71728    300.00969    376.56428   -7957273.1    64143.441   -7893129.6    687340.54    1.1848316    69.918596    69.918596     140.6004 
    1800    71728    301.85597    1172.9031   -7957725.9    64538.184   -7893187.7    686656.33    1.1860122     69.87509     69.87509     140.6354 
    1900    71728     300.5882    369.10443   -7957773.9     64267.13   -7893506.8    686558.64     1.186181    69.861427    69.861427     140.6704 
    2000    71728    299.73415   -786.91871   -7957850.8    64084.528   -7893766.2     686618.7    1.1860772    69.855792    69.855792    140.70541 
    2100    71728    299.96099   -198.82637   -7957742.6    64133.027   -7893609.6    686713.92    1.1859128    69.851949    69.851949    140.74041 
    2200    71728    300.80494   -1526.8668   -7957776.3    64313.468   -7893462.8    686508.23    1.1862681    69.832803    69.832803    140.77541 
    2300    71728     301.4031    -476.8872   -7957658.9    64441.358   -7893217.6    686192.94    1.1868132    69.808088    69.808088    140.81041 
    2400    71728    300.91896     1218.612   -7957583.8    64337.847     -7893246    686196.49     1.186807    69.799594    69.799594    140.84541 
    2500    71728    298.81448   -399.67954   -7957595.7    63887.899   -7893707.8     686956.8    1.1854935    69.829576    69.829576    140.88041 
    2600    71728    298.91422    579.09784   -7957684.9    63909.223   -7893775.6    686942.19    1.1855187    69.820161    69.820161    140.91541 
    2700    71728    300.74838    298.22049   -7957793.6    64301.376   -7893492.2    686841.93    1.1856918    69.806397    69.806397    140.95041 
    2800    71728    301.10324    286.29658   -7957735.5    64377.247   -7893358.3     686879.3    1.1856272     69.79963     69.79963    140.98542 
    2900    71728    300.80432    132.06854   -7957636.7    64313.336   -7893323.3    686961.62    1.1854852    69.795149    69.795149    141.02042 
    3000    71728    298.19895    107.85292   -7957227.8    63756.296   -7893471.5    686900.01    1.1855915    69.783359    69.783359    141.05542 
    3100    71728    298.63072    -468.6307   -7957491.5     63848.61   -7893642.9    686549.75    1.1861964    69.756911    69.756911    141.09042 
    3200    71728    299.22367   -44.548296   -7957800.9    63975.387   -7893825.5    686915.21    1.1855653    69.766822    69.766822    141.12542 
    3300    71728    300.17039     688.3025   -7958006.9      64177.8   -7893829.1    687564.61    1.1844455    69.791138    69.791138    141.16042 
    3400    71728    301.46847   -164.45244   -7957927.1    64455.335   -7893471.8    687697.84     1.184216    69.789248    69.789248    141.19542 
    3500    71728    301.51451    609.91256   -7957705.6    64465.179   -7893240.4     687707.7    1.1841991      69.7811      69.7811    141.23043 
    3600    71728    299.46312    192.15712   -7957614.2    64026.581   -7893587.6    688167.63    1.1834076    69.795782    69.795782    141.26543 
    3700    71728    299.49455    115.75504   -7957817.9      64033.3   -7893784.6     688416.4      1.18298     69.79975     69.79975    141.30043 
    3800    71728    300.26683   -441.98143   -7957975.1    64198.418   -7893776.7    688859.23    1.1822195    69.813549    69.813549    141.33543 
    3900    71728    298.99328   -985.77547   -7957761.3    63926.128   -7893835.1    689281.55    1.1814952    69.826301    69.826301    141.37043 
    4000    71728    299.98715   -501.90844   -7958090.2    64138.622   -7893951.6    689541.14    1.1810504    69.830804    69.830804    141.40543 
    4100    71728    300.08597    321.91224   -7958271.8     64159.75   -7894112.1    689223.69    1.1815943    69.806089    69.806089    141.44043 
    4200    71728    298.72526   -155.20358   -7957928.4    63868.824   -7894059.6    689215.82    1.1816078    69.797055    69.797055    141.47544 
    4300    71728    301.34997   -205.07435   -7958135.7    64429.998   -7893705.7    689139.24    1.1817391    69.784546    69.784546    141.51044 
    4400    71728    301.34446    1120.7388   -7958017.3     64428.82   -7893588.5    689099.66     1.181807    69.773913    69.773913    141.54544 
    4500    71728    300.51374    -298.0908   -7957964.9     64251.21   -7893713.7    688987.84    1.1819988    69.759627    69.759627    141.58044 
    4600    71728    300.03501   -542.15831   -7958304.9    64148.854     -7894156    689192.21    1.1816483     69.76135     69.76135    141.61544 
    4700    71728     299.2508    679.33851   -7958223.6    63981.186   -7894242.4    689167.43    1.1816908    69.751477    69.751477    141.65044 
    4800    71728    300.95056   -889.00047   -7958381.5    64344.604   -7894036.9    689338.89    1.1813969    69.751535    69.751535    141.68544 
    4900    71728    300.68754   -184.61077   -7957902.4    64288.367     -7893614    688990.68    1.1819939    69.725305    69.725305    141.72044 
    5000    71728    301.95732    460.93584   -7957773.6    64559.852   -7893213.8    689097.44    1.1818108    69.722097    69.722097    141.75545 
    5100    71728    301.45748    2876.9777   -7957754.6    64452.985   -7893301.6     688903.1    1.1821442     69.70366     69.70366    141.79045 
    5200    71728    301.66686   -538.27233   -7958061.4    64497.751   -7893563.6    689387.89    1.1813129    69.719577    69.719577    141.82545 
    5300    71728    300.17022    111.24512   -7958109.3    64177.763   -7893931.5     689861.1    1.1805026    69.734897    69.734897    141.86045 
    5400    71728    299.98229    244.36566   -7958256.3    64137.583   -7894118.7    690142.03    1.1800221    69.740491    69.740491    141.89545 
    5500    71728     298.5028    282.79715   -7957861.8     63821.26   -7894040.5    690402.58    1.1795767    69.745053    69.745053    141.93045 
    5600    71728    300.69603    56.683198   -7957950.9    64290.182   -7893660.7    690240.56    1.1798536    69.728272    69.728272    141.96545 
    5700    71728    299.56192   -1194.4965   -7957401.3    64047.705   -7893353.6    690226.76    1.1798772    69.718981    69.718981    142.00046 
    5800    71728    303.07268   -1051.4058   -7957664.2    64798.321   -7892865.8    690351.81    1.1796635    69.716704    69.716704    142.03546 
    5900    71728    302.03845    70.709325   -7957698.7    64577.198   -7893121.5    690826.71    1.1788525    69.732088    69.732088    142.07046 
    6000    71728    301.11811   -523.76896   -7957914.8    64380.425   -7893534.3    691362.53    1.1779389    69.750534    69.750534    142.10546 
    6100    71728    300.57588   -1323.2085   -7958158.9    64264.493   -7893894.4    691148.51    1.1783037     69.73115     69.73115    142.14046 
    6200    71728    300.22534    674.82732   -7958364.3    64189.548   -7894174.7    690577.03    1.1792787    69.693735    69.693735    142.17546 
    6300    71728     300.4044     222.6903   -7958590.7    64227.831   -7894362.9    690567.91    1.1792943    69.684698    69.684698    142.21046 
    6400    71728    298.61034   -648.27291   -7958328.8    63844.253   -7894484.5    690117.04    1.1800648    69.653374    69.653374    142.24546 
    6500    71728     300.6521   -48.788693   -7958701.3    64280.791   -7894420.5    689836.35    1.1805449    69.630642    69.630642    142.28047 
    6600    71728      299.157   -1012.0038     -7958262    63961.131   -7894300.9    689691.03    1.1807937    69.614745    69.614745    142.31547 
    6700    71728    301.49727   -835.15529   -7958492.6    64461.492   -7894031.1    689196.91    1.1816403    69.581248    69.581248    142.35047 
    6800    71728    300.33495    396.35475     -7958053    64212.984     -7893840    688879.63    1.1821845    69.556679    69.556679    142.38547 
    6900    71728    299.83625   -301.17128   -7957991.3    64106.359   -7893884.9    688982.05    1.1820088    69.553301    69.553301    142.42047 
    7000    71728    299.15776   -1736.3415     -7958285    63961.294   -7894323.7    689456.41    1.1811955    69.568692    69.568692    142.45547 
    7100    71728    299.37693   -594.57287   -7958412.4    64008.153   -7894404.2    689875.04    1.1804787    69.581262    69.581262    142.49047 
    7200    71728     299.1722    211.68856   -7958219.8    63964.382   -7894255.4     690255.6    1.1798279    69.591904    69.591904    142.52548 
    7300    71728    300.91619   -812.38232   -7958024.5    64337.255   -7893687.2    690541.51    1.1793394     69.59777     69.59777    142.56048 
    7400    71728     300.6099   -1447.4297   -7957845.1    64271.769   -7893573.3    691180.08    1.1782498    69.621397    69.621397    142.59548 
    7500    71728    300.85828   -929.25035   -7958183.9    64324.873     -7893859    691183.17    1.1782446    69.613009    69.613009    142.63048 
    7600    71728    298.49205   -525.50544   -7958010.8    63818.962   -7894191.8    691281.34    1.1780772    69.609412    69.609412    142.66548 
    7700    71728      300.125   -74.948677   -7958342.6    64168.095   -7894174.5    691726.51    1.1773191    69.623282    69.623282    142.70048 
    7800    71728    299.28435   -1082.2456   -7958284.4     63988.36     -7894296     691480.7    1.1777376    69.602375    69.602375    142.73548 
    7900    71728    297.32179   -889.30832   -7958209.7    63568.756     -7894641    691571.43    1.1775831    69.598408    69.598408    142.77048 
    8000    71728    297.93451    636.16128   -7958316.8    63699.757   -7894617.1    691334.27     1.177987    69.577945    69.577945    142.80549 
    8100    71728    300.42872   -1120.3464     -7958319     64233.03     -7894086    691486.42    1.1777279    69.577075    69.577075    142.84049 
    8200    71728    300.59016    -1532.402   -7958224.7    64267.548   -7893957.2    691835.06    1.1771344    69.586087    69.586087    142.87549 
    8300    71728    299.72975    -2106.927   -7958064.7    64083.588   -7893981.1    692090.63    1.1766997    69.590416    69.590416    142.91049 
    8400    71728    299.65904   -93.366595     -7958042    64068.471   -7893973.5    692176.66    1.1765534     69.58622     69.58622    142.94549 
    8500    71728    301.31997   -1884.4713   -7958535.7    64423.584   -7894112.2    692349.07    1.1762604    69.586367    69.586367    142.98049 
    8600    71728    299.74755   -1485.3653     -7958432    64087.394   -7894344.6    692618.05    1.1758036    69.591365    69.591365    143.01549 
    8700    71728    299.33835   -1519.5783   -7958202.9    63999.906     -7894203    692687.28    1.1756861    69.586329    69.586329     143.0505 
    8800    71728     300.2027   -722.23917   -7957873.6    64184.708   -7893688.9    692728.01     1.175617    69.579863    69.579863     143.0855 
    8900    71728    301.27822    440.44805   -7957931.8    64414.657   -7893517.1    692279.22    1.1763791    69.548814    69.548814     143.1205 
    9000    71728    299.82073   -242.80454   -7957843.8     64103.04   -7893740.8    692000.15    1.1768535    69.526293    69.526293     143.1555 
    9100    71728    299.59583    419.21869   -7958140.8    64054.954   -7894085.9    691690.04    1.1773812    69.502217    69.502217     143.1905 
    9200    71728    299.32272    1616.9244   -7958250.7    63996.563   -7894254.2    691526.44    1.1776597    69.485505    69.485505     143.2255 
    9300    71728    299.13227   -212.15363   -7958158.5    63955.844   -7894202.7     691215.2      1.17819    69.461379    69.461379     143.2605 
    9400    71728    300.77917   -1364.7616   -7958328.5    64307.958   -7894020.5    691554.09    1.1776126    69.469919    69.469919    143.29551 
    9500    71728    301.40192   -1175.9875   -7958117.6    64441.105   -7893676.5    691600.39    1.1775338    69.463762    69.463762    143.33051 
    9600    71728    301.06699     275.4073   -7957785.8    64369.497   -7893416.3    691585.14    1.1775597    69.454516    69.454516    143.36551 
    9700    71728    300.34156    297.19985   -7957996.5    64214.396   -7893782.1    691761.56    1.1772594    69.454896    69.454896    143.40051 
    9800    71728    300.43359   -467.86787   -7958335.9    64234.072   -7894101.9    691710.84    1.1773458    69.443875    69.443875    143.43551 
    9900    71728    299.73777    771.88735   -7958216.7    64085.303   -7894131.4     691514.6    1.1776799    69.425554    69.425554    143.47051 
   10000    71728    300.63046    579.39932   -7958379.1    64276.164   -7894102.9    691768.55    1.1772475    69.429832    69.429832    143.50551 
   10100    71728    300.40389   -367.13403   -7958119.4    64227.722   -7893891.7     692465.3     1.176063    69.456318    69.456318    143.54051 
   10200    71728    300.59723   -1414.7821   -7957791.4    64269.059   -7893522.3    692968.13    1.1752096    69.473062    69.473062    143.57552 
   10300    71728    301.20975    718.76346     -7957859    64400.019     -7893459    692889.56    1.1753429    69.460657    69.460657    143.61052 
   10400    71728    298.83631   -1337.8152   -7957873.6    63892.566   -7893981.1    692868.69    1.1753783    69.451148    69.451148    143.64552 
   10500    71728    300.00825   -477.74551   -7958317.4    64143.133   -7894174.3    692806.57    1.1754837    69.439575    69.439575    143.68052 
   10600    71728    299.51125   -1036.6363   -7958110.5    64036.872   -7894073.7    692969.63    1.1752071    69.439289    69.439289    143.71552 
   10700    71728    299.65937    352.66051   -7957885.4     64068.54   -7893816.9    692942.62    1.1752529    69.429481    69.429481    143.75052 
   10800    71728    301.35142     582.9552   -7957941.3    64430.309   -7893510.9    692941.02    1.1752556     69.42095     69.42095    143.78552 
   10900    71728    300.42902    705.13693   -7957872.2    64233.095   -7893639.1    692911.84    1.1753051     69.41104     69.41104    143.82053 
   11000    71728    299.06737   -1096.2213   -7958111.6    63941.967   -7894169.6    692804.82    1.1754866    69.397236    69.397236    143.85553 
   11100    71728    299.27671    100.05572   -7958160.6    63986.727   -7894173.9     692652.1    1.1757458    69.381147    69.381147    143.89053 
   11200    71728    300.19274    470.81808   -7958175.6    64182.577     -7893993    692652.95    1.1757444    69.372753    69.372753    143.92553 
   11300    71728    299.51934   -1006.3583   -7957719.4    64038.601   -7893680.8     692917.6    1.1752953    69.377569    69.377569    143.96053 
   11400    71728    301.80559    89.176843   -7957901.1    64527.413   -7893373.7    693033.63    1.1750985    69.374944    69.374944    143.99553 
   11500    71728     300.6466   -98.388122   -7957924.6    64279.615     -7893645    693213.86     1.174793    69.375533    69.375533    144.03053 
   11600    71728    299.48661   -1443.1947   -7958134.2    64031.604   -7894102.6    693299.05    1.1746487    69.371367    69.371367    144.06553 
   11700    71728    299.80293   -354.69808     -7958217    64099.233   -7894117.7    693713.43     1.173947    69.383668    69.383668    144.10054 
   11800    71728      298.922   -866.74892   -7957938.2    63910.887   -7894027.3    693826.85    1.1737551    69.380914    69.380914    144.13554 
   11900    71728    299.37647   -303.73219     -7957648    64008.056   -7893639.9    693722.06    1.1739324    69.367252    69.367252    144.17054 
   12000    71728    300.06405   -820.50105     -7957472    64155.063   -7893316.9    693660.83     1.174036    69.355773    69.355773    144.20554 
   12100    71728    300.63613   -1238.8289   -7957785.3    64277.375   -7893507.9    693850.73    1.1737147    69.356849    69.356849    144.24054 
   12200    71728    300.76022    -1008.702   -7958076.8    64303.908   -7893772.9    693493.69     1.174319     69.33059     69.33059    144.27554 
   12300    71728    301.01465   -303.96188     -7958290    64358.306   -7893931.7    693003.11    1.1751503    69.297659    69.297659    144.31054 
   12400    71728    300.03868    140.46534   -7958187.1    64149.638   -7894037.5    693034.85    1.1750965    69.290843    69.290843    144.34555 
   12500    71728    300.13956   -2312.8336   -7958132.4    64171.208   -7893961.2    692974.37     1.175199     69.27942     69.27942    144.38055 
   12600    71728    300.31177   -140.56072   -7957934.5    64208.027   -7893726.5    693046.96    1.1750759    69.274652    69.274652    144.41555 
   12700    71728    300.77389   -518.42874   -7957766.3     64306.83   -7893459.5    692856.77    1.1753985    69.256754    69.256754    144.45055 
   12800    71728    299.65983   -1092.1088   -7957655.6    64068.639     -7893587     693010.6    1.1751376    69.256052    69.256052    144.48555 
   12900    71728     299.6544    499.09811   -7958072.3    64067.478   -7894004.8    693258.99    1.1747166    69.260074    69.260074    144.52055 
   13000    71728    300.47965   -853.78196     -7958365     64243.92     -7894121    693621.86     1.174102     69.26981     69.26981    144.55555 
   13100    71728    300.42942   -1172.7333   -7958390.7    64233.181   -7894157.5    693762.24    1.1738644    69.268434    69.268434    144.59055 
   13200    71728     298.9286   -1946.9669   -7958051.2    63912.298   -7894138.9    693664.55    1.1740297    69.255175    69.255175    144.62556 
   13300    71728    300.36941   -1141.6591   -7958082.7     64220.35   -7893862.3    693442.85    1.1744051    69.235729    69.235729    144.66056 
   13400    71728     301.5766    224.00777     -7958059    64478.453   -7893580.5     693047.1    1.1750757    69.207598    69.207598    144.69556 
   13500    71728    299.94958   -1570.5267   -7957874.8    64130.588   -7893744.2     693034.1    1.1750977     69.19858     69.19858    144.73056 
   13600    71728    299.36201    508.36642   -7958086.7    64004.964   -7894081.7    692866.26    1.1753824    69.181835    69.181835    144.76556 
   13700    71728    299.95643    441.19597   -7958200.7    64132.054   -7894068.7    693048.52    1.1750733    69.182571    69.182571    144.80056 
   13800    71728    300.61802   -714.68803   -7958113.7    64273.504   -7893840.2    693730.55     1.173918     69.20824     69.20824    144.83556 
   13900    71728    300.67165   -1692.3734   -7957584.7    64284.972   -7893299.7    694302.35    1.1729513    69.228391    69.228391    144.87057 
   14000    71728    300.14485   -1359.8016   -7957599.8    64172.338   -7893427.5    694632.05    1.1723945    69.236463    69.236463    144.90557 
   14100    71728    299.95879   -337.08868   -7957957.4    64132.557   -7893824.9    694706.38    1.1722691    69.231806    69.231806    144.94057 
   14200    71728    299.83422    50.666995   -7958097.9    64105.924   -7893991.9    694402.68    1.1727818    69.208316    69.208316    144.97557 
   14300    71728    299.25566   -507.79038   -7958035.2    63982.225     -7894053    693970.07    1.1735129    69.178404    69.178404    145.01057 
   14400    71728    299.43657   -1697.6055     -7958188    64020.905   -7894167.1    694156.71    1.1731974    69.179358    69.179358    145.04557 
   14500    71728    298.53268   -1565.3172   -7958366.3    63827.649   -7894538.7    694529.54    1.1725676    69.189585    69.189585    145.08057 
   14600    71728    298.64691    82.572986   -7958530.3    63852.072   -7894678.2    694156.84    1.1731971    69.162676    69.162676    145.11557 
   14700    71728    299.91104   -1893.6371   -7958448.4    64122.349     -7894326    694190.36    1.1731405    69.156006    69.156006    145.15058 
   14800    71728    300.39785   -730.25634     -7958080    64226.432   -7893853.6    693723.59    1.1739298    69.124419    69.124419    145.18558 
   14900    71728    298.91583   -1361.4103   -7957701.1    63909.568   -7893791.5    694059.54    1.1733616    69.132821    69.132821    145.22058 
   15000    71728    300.06482   -810.08486   -7958103.7    64155.227   -7893948.5    694281.64    1.1729863    69.135551    69.135551    145.25558 
   15100    71728    298.37946   -1074.6063   -7957940.4    63794.891   -7894145.5    694978.88    1.1718094    69.161925    69.161925    145.29058 
   15200    71728    298.91328   -679.27881   -7957862.6    63909.022   -7893953.6    695312.87    1.1712466     69.17021     69.17021    145.32558 
   15300    71728    300.93017   -196.65109   -7957900.1    64340.243   -7893559.8    694989.17    1.1717921    69.145781    69.145781    145.36058 
   15400    71728    301.66052    172.98695   -7958162.9    64496.396   -7893666.5    695044.72    1.1716984    69.140221    69.140221    145.39559 
   15500    71728    299.64944    957.81508   -7958160.7    64066.418   -7894094.3     694894.9    1.1719511    69.124449    69.124449    145.43059 
   15600    71728    299.65699   -562.93686   -7958216.5    64068.032   -7894148.5    694949.99    1.1718582    69.118872    69.118872    145.46559 
   15700    71728    300.11617   -567.34408   -7958198.2    64166.206     -7894032    695283.93    1.1712953     69.12716     69.12716    145.50059 
   15800    71728    299.67815   -892.75046   -7958038.3    64072.556   -7893965.7    695775.88    1.1704672    69.143296    69.143296    145.53559 
   15900    71728    299.99842    464.06401   -7957902.6    64141.031   -7893761.6       695797    1.1704316    69.136032    69.136032    145.57059 
   16000    71728     301.2499   -1149.0464   -7957671.3    64408.602   -7893262.7    696240.81    1.1696855    69.149765    69.149765    145.60559 
   16100    71728    301.12329    2090.9992   -7957504.2    64381.533   -7893122.7    696546.96    1.1691714    69.156655    69.156655     145.6406 
   16200    71728    300.62402    404.50292   -7957672.9    64274.786   -7893398.1    696841.16    1.1686778    69.162948    69.162948     145.6756 
   16300    71728    299.73959   -1487.0147   -7957635.1    64085.691   -7893549.4    696963.64    1.1684725    69.160718    69.160718     145.7106 
   16400    71728    299.81151     1042.604   -7957753.5    64101.068   -7893652.5    696917.88    1.1685492    69.150142    69.150142     145.7456 
   16500    71728    300.05243   -2519.0749   -7958004.9    64152.579   -7893852.3    697036.02    1.1683511    69.147701    69.147701     145.7806 
   16600    71728    299.03512   -1705.2693   -7957934.2    63935.073   -7893999.1    696710.27    1.1688974    69.123244    69.123244     145.8156 
   16700    71728    299.63266   -2014.8298   -7958078.8     64062.83     -7894016    696478.36    1.1692866    69.103445    69.103445     145.8506 
   16800    71728    300.10266    904.71319   -7958024.3    64163.319     -7893861    696409.52    1.1694022     69.09174     69.09174     145.8856 
   16900    71728    301.63631   -1778.2288   -7958174.2    64491.219     -7893683    696430.52    1.1693669    69.084495    69.084495    145.92061 
   17000    71728    300.17889    91.517219   -7957956.9    64179.617   -7893777.3    695652.49    1.1706748    69.037615    69.037615    145.95561 
   17100    71728    299.55763   -1016.0608   -7958016.3    64046.789   -7893969.5    695549.38    1.1708483    69.024223    69.024223    145.99061 
   17200    71728      299.584     704.0026   -7958236.7    64052.425   -7894184.2    695350.48    1.1711832    69.006081    69.006081    146.02561 
   17300    71728    298.99302   -1513.7738   -7958038.8    63926.072   -7894112.7    695390.99     1.171115    68.999822    68.999822    146.06061 
   17400    71728    299.90989   -947.37375   -7957726.4    64122.103   -7893604.3     695373.4    1.1711446    68.990684    68.990684    146.09561 
   17500    71728     300.5185   -205.97883   -7957706.5    64252.227   -7893454.3    695915.48    1.1702324    69.009304    69.009304    146.13061 
   17600    71728    300.87007    -405.3688   -7957893.7    64327.393   -7893566.3    696443.93    1.1693444    69.027234    69.027234    146.16562 
   17700    71728    299.48995   -1272.9584   -7958025.5    64032.318   -7893993.2    696913.07    1.1685572    69.042213    69.042213    146.20062 
   17800    71728    299.00063   -1085.7487   -7957986.4    63927.699   -7894058.7     697259.6    1.1679765    69.051111    69.051111    146.23562 
   17900    71728    298.99047   -1632.1098   -7957820.3    63925.527   -7893894.7    697331.95    1.1678553    69.046431    69.046431    146.27062 
   18000    71728    300.46499    133.21828   -7958014.6    64240.785   -7893773.8    697218.75    1.1680449    69.032567    69.032567    146.30562 
   18100    71728    301.04673    667.75896   -7958263.4    64365.164   -7893898.2    696924.41    1.1685382     69.00974     69.00974    146.34062 
   18200    71728    298.63193   -150.37192   -7958171.5    63848.869   -7894322.6    697172.92    1.1681217     69.01379     69.01379    146.37562 
   18300    71728    298.98121   -301.09074   -7958102.3    63923.546   -7894178.8    697458.42    1.1676435    69.019668    69.019668    146.41062 
   18400    71728    298.67734   -1454.2805   -7957668.2    63858.577   -7893809.6    697229.77    1.1680264    69.000106    69.000106    146.44563 
   18500    71728    300.76165     193.5299   -7957999.6    64304.214   -7893695.4    697172.35    1.1681227    68.989021    68.989021    146.48063 
   18600    71728    300.23755     -144.602   -7957845.2    64192.158     -7893653    697512.16    1.1675536    68.997589    68.997589    146.51563 
   18700    71728    300.88503    50.376012   -7957903.1    64330.591   -7893572.5     697569.5    1.1674576    68.992185    68.992185    146.55063 
   18800    71728    300.07626   -685.83975     -7957944    64157.674   -7893786.3    698186.08    1.1664266    69.014428    69.014428    146.58563 
   18900    71728    299.95055   -957.59244   -7958243.7    64130.797   -7894112.9    698808.51    1.1653877    69.036942    69.036942    146.62063 
   19000    71728     298.5801   -405.51595   -7957811.3    63837.788   -7893973.5    699261.38    1.1646329    69.051067    69.051067    146.65563 
   19100    71728    299.79658     -1253.46   -7957677.8    64097.877   -7893579.9    699374.16    1.1644451    69.048397    69.048397    146.69064 
   19200    71728    301.22296   -778.98169     -7957919    64402.843   -7893516.1    699491.13    1.1642504    69.045933    69.045933    146.72564 
   19300    71728    299.41554    73.407989   -7957579.8    64016.409   -7893563.4    699933.58    1.1635144     69.05953     69.05953    146.76064 
   19400    71728    300.37737   -1329.6222     -7957716    64222.052   -7893493.9    700000.26    1.1634036    69.054585    69.054585    146.79564 
   19500    71728    301.05075    439.94614   -7957677.1    64366.024   -7893311.1    699454.74    1.1643109    69.019445    69.019445    146.83064 
   19600    71728    301.95185   -2287.7732   -7957817.7    64558.683     -7893259    699434.33    1.1643449    69.010213    69.010213    146.86564 
   19700    71728    299.46832   -1620.1065     -7957631    64027.693   -7893603.3    698767.15    1.1654566    68.969073    68.969073    146.90064 
   19800    71728    300.36576   -1366.5445   -7958030.9    64219.569   -7893811.4    698229.86    1.1663535    68.934341    68.934341    146.93564 
   19900    71728    299.25244   -14.611148   -7957899.3    63981.537   -7893917.8    697946.54    1.1668269    68.912147    68.912147    146.97065 
   20000    71728    298.90251   -448.13387   -7957944.2     63906.72   -7894037.4    698318.72     1.166205    68.922311    68.922311    147.00565 
   20100    71728    299.97794   -1586.5525   -7958059.1    64136.651   -7893922.4    699114.15    1.1648782    68.953345    68.953345    147.04065 
   20200    71728     300.9922   -1686.0899   -7957888.7    64353.506   -7893535.1    699399.45     1.164403    68.959206    68.959206    147.07565 
   20300    71728    301.07099   -739.52328   -7957691.4    64370.352     -7893321    699952.91    1.1634823    68.978279    68.978279    147.11065 
   20400    71728    299.88892   -581.43029   -7957634.4     64117.62   -7893516.8    699937.54    1.1635078    68.969317    68.969317    147.14565 
   20500    71728     299.7682   -1697.0275   -7957882.3    64091.808   -7893790.5    700140.53    1.1631705    68.971115    68.971115    147.18065 
   20600    71728    298.29616    77.581948   -7957946.2    63777.081   -7894169.1    700454.23    1.1626496    68.978363    68.978363    147.21566 
   20700    71728    298.18243   -607.80158   -7958006.2    63752.764   -7894253.5    700637.12    1.1623461    68.979168    68.979168    147.25066 
   20800    71728    300.18848   -1519.8899   -7957908.4    64181.667   -7893726.7    700602.69    1.1624032    68.969276    68.969276    147.28566 
   20900    71728    299.78088   -787.23816   -7957623.9    64094.521   -7893529.4    700404.36    1.1627324    68.951321    68.951321    147.32066 
   21000    71728    299.71551   -177.90519     -7957571    64080.543   -7893490.5    700035.26    1.1633454    68.924964    68.924964    147.35566 
   21100    71728    299.15971   -347.29659   -7957618.8     63961.71   -7893657.1    700191.38     1.163086    68.924463    68.924463    147.39066 
   21200    71728    301.43058   -24.738682   -7958193.4    64447.234   -7893746.2    699506.26    1.1642252    68.882556    68.882556    147.42566 
   21300    71728      298.356    667.87606   -7957825.9    63789.875     -7894036    699281.49    1.1645994    68.863315    68.863315    147.46067 
   21400    71728    300.35987   -1785.1806   -7958198.6    64218.312   -7893980.3    699389.45    1.1644196    68.860458    68.860458    147.49567 
   21500    71728    300.82721   -228.63476   -7957809.6    64318.231   -7893491.3    699298.79    1.1645706    68.847827    68.847827    147.53067 
   21600    71728    300.64958   -644.20327   -7957630.8    64280.253   -7893350.6    699296.09    1.1645751    68.839528    68.839528    147.56567 
   21700    71728    300.67022   -487.16531   -7957791.6    64284.664   -7893506.9    699276.34     1.164608    68.830393    68.830393    147.60067 
   21800    71728    300.21776    548.65933   -7957952.3    64187.928   -7893764.3    699371.18    1.1644501    68.826901    68.826901    147.63567 
   21900    71728    299.21888    -424.7698   -7957802.2    63974.363   -7893827.9    699600.81    1.1640679     68.83004     68.83004    147.67067 
   22000    71728    299.67545   -603.49017     -7957829    64071.978     -7893757    700214.75    1.1630472    68.852076    68.852076    147.70567 
   22100    71728    300.01216   -255.77446   -7957785.6    64143.969   -7893641.6     700541.3    1.1625051     68.85997     68.85997    147.74068 
   22200    71728    299.83702   -1659.3386   -7957560.7    64106.523   -7893454.2     700752.4    1.1621549    68.862188    68.862188    147.77568 
   22300    71728    299.27079   -319.12023   -7957208.2    63985.461   -7893222.8    700512.97    1.1625521     68.84227     68.84227    147.81068 
   22400    71728    300.82622    155.32636   -7957056.8    64318.018   -7892738.8    700900.94    1.1619086     68.85318     68.85318    147.84568 
   22500    71728    303.07866   -689.90276   -7957275.8    64799.601   -7892476.2    700923.02     1.161872    68.846116    68.846116    147.88068 
   22600    71728    301.49665   -882.72478   -7957407.5    64461.359   -7892946.2    700654.26    1.1623177     68.82477     68.82477    147.91568 
   22700    71728    301.18998   -866.20779     -7957703    64395.792   -7893307.2    701003.01    1.1617394    68.833754    68.833754    147.95068 
   22800    71728    299.63599   -2283.1804   -7957677.5    64063.541     -7893614    701336.39    1.1611872    68.841977    68.841977    147.98569 
   22900    71728    299.49639   -334.62011   -7957747.7    64033.695     -7893714    701346.39    1.1611706    68.834328    68.834328    148.02069 
   23000    71728    299.45699   -898.80449   -7957555.3     64025.27     -7893530    701050.56    1.1616606    68.811674    68.811674    148.05569 
   23100    71728    300.48382   -243.84179   -7957465.9    64244.811   -7893221.1    700474.83    1.1626154    68.775284    68.775284    148.09069 
   23200    71728    302.42502    100.32096   -7957650.7     64659.85   -7892990.8    700700.71    1.1622406    68.778244    68.778244    148.12569 
   23300    71728    299.81541   -1347.9983   -7957545.8    64101.904   -7893443.9    701028.64    1.1616969     68.78621     68.78621    148.16069 
   23400    71728    300.36778   -1393.2288   -7957977.8    64220.001   -7893757.8     701382.8    1.1611103    68.795458    68.795458    148.19569 
   23500    71728    299.54129   -294.86574   -7957776.9    64043.295   -7893733.6    701419.42    1.1610497    68.789131    68.789131    148.23069 
   23600    71728    299.26656   -654.98444   -7957385.6    63984.555     -7893401    700730.25    1.1621916    68.747212    68.747212     148.2657 
   23700    71728     300.6575   -741.40696   -7957617.6    64281.945   -7893335.7    700351.27    1.1628205    68.720508    68.720508     148.3007 
   23800    71728    298.23775   -531.12069   -7957460.1    63764.592   -7893695.5    700676.66    1.1622805    68.728361    68.728361     148.3357 
   23900    71728    298.65187   -960.49785   -7957703.7    63853.133   -7893850.5    700934.95    1.1618522    68.732919    68.732919     148.3707 
   24000    71728    299.86202   -644.82333   -7957852.8    64111.868     -7893741    701248.35     1.161333    68.740175    68.740175     148.4057 
   24100    71728    299.03925   -207.26446   -7957664.8    63935.956   -7893728.8    701407.04    1.1610702    68.739847    68.739847     148.4407 
   24200    71728    300.25127   -659.58195   -7957990.9    64195.091   -7893795.8    701081.54    1.1616093    68.715794    68.715794     148.4757 
   24300    71728    299.73313    153.35466   -7957719.2    64084.312   -7893634.8    700880.94    1.1619417    68.697866    68.697866    148.51071 
   24400    71728    300.90713   -2278.1135   -7957647.4    64335.317   -7893312.1    700790.93     1.162091    68.685361    68.685361    148.54571 
   24500    71728    300.77361   -655.39155   -7957511.4     64306.77   -7893204.7     701465.7    1.1609731    68.710326    68.710326    148.58071 
   24600    71728    298.74843    -2449.859   -7957533.5    63873.777   -7893659.8    702064.41    1.1599831    68.731547    68.731547    148.61571 
   24700    71728     299.8365   -1900.8493   -7957942.4    64106.412   -7893835.9    702272.29    1.1596397    68.733628    68.733628    148.65071 
   24800    71728    300.17488   -2438.9784   -7957867.1    64178.759   -7893688.3    702628.29    1.1590521    68.742955    68.742955    148.68571 
   24900    71728    301.25294   -888.71927   -7957836.1    64409.253   -7893426.9    702855.79     1.158677    68.745992    68.745992    148.72071 
   25000    71728    300.64028   -1281.5008   -7957665.3    64278.263   -7893387.1    703349.04    1.1578644    68.762019    68.762019    148.75571 
   25100    71728    298.87871   -1390.2698   -7957457.4    63901.632   -7893555.8    703120.42    1.1582409    68.742756    68.742756    148.79072 
   25200    71728     298.8456   -1010.1341   -7957914.7    63894.553   -7894020.1    703158.66    1.1581779    68.736541    68.736541    148.82572 
   25300    71728    298.89915   -1973.3246   -7957704.9    63906.002   -7893798.9    702892.26    1.1586168    68.715439    68.715439    148.86072 
   25400    71728    299.43933    145.05885   -7957395.4    64021.494   -7893373.9    702482.25    1.1592931     68.68732     68.68732    148.89572 
   25500    71728    300.08927   -2153.5314   -7957446.1    64160.454   -7893285.7    702614.02    1.1590757    68.685689    68.685689    148.93072 
   25600    71728    299.69685     -1976.37   -7957434.8    64076.555   -7893358.2    702643.86    1.1590264    68.679078    68.679078    148.96572 
   25700    71728    298.65218   -785.12083   -7957578.8    63853.198   -7893725.6    702487.83    1.1592839    68.663386    68.663386    149.00072 
   25800    71728    299.44494   -981.32962   -7957890.5    64022.695   -7893867.8    702216.99     1.159731    68.642086    68.642086    149.03573 
   25900    71728    299.19155   -102.78398   -7957520.5    63968.518     -7893552    702157.55    1.1598292    68.631122    68.631122    149.07073 
   26000    71728    300.22566   -618.86646     -7957457    64189.615   -7893267.4    702258.96    1.1596617    68.628022    68.628022    149.10573 
   26100    71728    299.58549   -968.92592     -7957263    64052.746   -7893210.3    702647.44    1.1590205    68.638945    68.638945    149.14073 
   26200    71728    299.90841   -1063.7981   -7957316.3    64121.786   -7893194.5    702990.51    1.1584549    68.647645    68.647645    149.17573 
   26300    71728    300.19118   -1692.2069   -7957622.6    64182.244   -7893440.3    702696.14    1.1589402    68.625221    68.625221    149.21073 
   26400    71728    299.20999   -1244.8048   -7957822.7    63972.462   -7893850.3     702494.8    1.1592724    68.607342    68.607342    149.24573 
   26500    71728    298.96085   -176.05911     -7957819    63919.193   -7893899.8    702334.79    1.1595365    68.591486    68.591486    149.28073 
   26600    71728    299.63886   -786.16964   -7957658.9    64064.156   -7893594.7    702674.18    1.1589764    68.600015    68.600015    149.31574 
   26700    71728    299.61794    194.20702   -7957372.6    64059.682   -7893312.9    703493.66    1.1576264    68.631961    68.631961    149.35074 
   26800    71728    300.60374   -2684.0793   -7957383.4    64270.452     -7893113    704146.77    1.1565526    68.655768    68.655768    149.38574 
   26900    71728    299.38463   -142.33355   -7957098.3    64009.799   -7893088.5    703914.42    1.1569344    68.636399    68.636399    149.42074 
   27000    71728    301.03008   -339.11286   -7957758.3    64361.604   -7893396.7       703827    1.1570781      68.6241      68.6241    149.45574 
   27100    71728    299.11983   -1045.1603   -7957789.6    63953.185   -7893836.4    703615.56    1.1574258    68.605758    68.605758    149.49074 
   27200    71728    299.84096   -552.18846   -7957759.2    64107.366   -7893651.9    703292.14    1.1579581     68.58196     68.58196    149.52574 
   27300    71728    300.90936   -545.14026   -7957659.7    64335.795   -7893323.9    702916.08    1.1585776    68.555599    68.555599    149.56075 
   27400    71728    299.64147   -1399.1938   -7957431.4    64064.712   -7893366.7    702612.92    1.1590775    68.532795    68.532795    149.59575 
   27500    71728    298.48456   -1500.8991   -7957538.1     63817.36   -7893720.7    702319.43    1.1595618    68.510465    68.510465    149.63075 
   27600    71728    298.34085   -1699.0302   -7957582.6    63786.635     -7893796    702599.57    1.1590995    68.516115    68.516115    149.66575 
   27700    71728    300.32431    -1794.319   -7957379.2    64210.708   -7893168.5    702436.31    1.1593689    68.500144    68.500144    149.70075 
   27800    71728     300.3986   -152.41353   -7957128.8    64226.592   -7892902.2    702444.54    1.1593553    68.492539    68.492539    149.73575 
   27900    71728    300.48797   -1313.3018   -7957376.4    64245.699   -7893130.7    703081.12    1.1583056     68.51556     68.51556    149.77075 
   28000    71728    300.37566   -954.22921   -7957649.3    64221.686   -7893427.6    703389.22    1.1577983    68.522564    68.522564    149.80576 
   28100    71728    298.46983   -2035.2025   -7957409.1    63814.211   -7893594.9    703901.58    1.1569555    68.539509    68.539509    149.84076 
   28200    71728    299.76615   -935.07306   -7957541.4    64091.371     -7893450     704236.9    1.1564046    68.547827    68.547827    149.87576 
   28300    71728    301.99155   -1059.7627   -7957479.6    64567.171   -7892912.4    703851.71    1.1570375    68.521077    68.521077    149.91076 
   28400    71728    299.90487   -2283.8934   -7957071.7     64121.03   -7892950.6    703856.47    1.1570297    68.513312    68.513312    149.94576 
   28500    71728    299.76344   -1529.9592   -7957285.3     64090.79   -7893194.5    704015.83    1.1567678    68.513071    68.513071    149.98076 
   28600    71728    300.76783   -705.94822   -7957690.2    64305.533   -7893384.7    704050.97      1.15671    68.506788    68.506788    150.01576 
   28700    71728    300.28095    947.64912   -7957627.2    64201.437   -7893425.7    703960.51    1.1568587    68.494396    68.494396    150.05076 
   28800    71728     299.2835   -1190.7992   -7957394.3    63988.178   -7893406.1    704466.57    1.1560276    68.511022    68.511022    150.08577 
   28900    71728    301.61048   -769.70156   -7957525.1    64485.696   -7893039.4    705014.82    1.1551287    68.529685    68.529685    150.12077 
   29000    71728     302.9455    -1606.458   -7957675.7    64771.129   -7892904.6     704990.4    1.1551687    68.520511    68.520511    150.15577 
   29100    71728    298.97531   -2707.1199   -7957389.6    63922.286   -7893467.3     704832.8     1.155427    68.504868    68.504868    150.19077 
   29200    71728    300.71673   -331.84879   -7957828.3    64294.609   -7893533.7    704592.66    1.1558208    68.485217    68.485217    150.22577 
   29300    71728    299.63011   -294.97604   -7957687.9    64062.285   -7893625.6    704749.67    1.1555632    68.484869    68.484869    150.26077 
   29400    71728    299.10455   -587.42627   -7957547.1    63949.917   -7893597.2    704844.95     1.155407    68.481523    68.481523    150.29577 
   29500    71728    300.56047   -1160.2682   -7957432.6      64261.2   -7893171.4    704992.55    1.1551651     68.48072     68.48072    150.33078 
   29600    71728    299.53358   -685.59276     -7957033    64041.647   -7892991.4    704703.56    1.1556388    68.458713    68.458713    150.36578 
   29700    71728    300.95688   -721.73565   -7957304.7    64345.954   -7892958.7    704401.78     1.156134    68.436089    68.436089    150.40078 
   29800    71728    300.11992   -557.46872   -7957483.3    64167.009   -7893316.3    704403.85    1.1561306    68.428228    68.428228    150.43578 
   29900    71728    300.19983   -973.01933   -7957786.5    64184.094   -7893602.4    704569.16    1.1558593    68.428297    68.428297    150.47078 
   30000    71728    299.87279     593.1334   -7957772.6     64114.17   -7893658.4    704476.11     1.156012    68.415821    68.415821    150.50578 
   30100    71728    301.34745   -132.24625   -7957680.1    64429.459   -7893250.7    704608.83    1.1557942     68.41431     68.41431    150.54078 
   30200    71728    301.65894   -520.87212   -7957460.1    64496.059   -7892964.1    704628.61    1.1557618    68.407319    68.407319    150.57578 
   30300    71728    301.30081   -1024.8918   -7957502.2    64419.487   -7893082.8    704990.79     1.155168    68.416946    68.416946    150.61079 
   30400    71728    300.50956    -312.2903   -7957523.5    64250.314   -7893273.1     705047.1    1.1550758    68.411729    68.411729    150.64579 
   30500    71728    300.20578   -1473.9809   -7957646.5    64185.365   -7893461.2    704855.63    1.1553895    68.394494    68.394494    150.68079 
   30600    71728    301.14234   -1046.4839   -7957900.4    64385.606   -7893514.8    704732.66    1.1555911    68.380587    68.380587    150.71579 
   30700    71728    301.12928    112.39185   -7957779.1    64382.814   -7893396.3    705045.01    1.1550792    68.387798    68.387798    150.75079 
   30800    71728    301.53682   -139.65044   -7957466.6    64469.948   -7892996.6    705497.62    1.1543381    68.401806    68.401806    150.78579 
   30900    71728    302.25386   -2058.6768   -7957575.3    64623.255     -7892952    706185.06    1.1532145    68.427181    68.427181    150.82079 
   31000    71728    299.19527    255.10285   -7957323.9    63969.313   -7893354.6    706878.53    1.1520831    68.452828    68.452828     150.8558 
   31100    71728    300.21514    740.82959   -7957685.9    64187.367   -7893498.5    706988.22    1.1519044    68.450199    68.450199     150.8908 
   31200    71728    299.58223   -576.98159   -7957518.8    64052.048   -7893466.7    706777.24    1.1522482    68.432048    68.432048     150.9258 
   31300    71728    300.64893   -394.37847   -7957432.6    64280.113   -7893152.5    706412.89    1.1528425    68.406475    68.406475     150.9608 
   31400    71728    299.88413   -1350.2232   -7956718.2    64116.595   -7892601.6    706433.69    1.1528086    68.399553    68.399553     150.9958 
   31500    71728    302.07759   -162.42311   -7957187.5    64585.566     -7892602    706269.19    1.1530771    68.383664    68.383664     151.0308 
   31600    71728    300.77704    -723.9082     -7957277    64307.504   -7892969.5    706359.12    1.1529303    68.380094    68.380094     151.0658 
   31700    71728    300.13023   -486.04225   -7957397.7    64169.213   -7893228.5    706170.02     1.153239    68.363022    68.363022     151.1008 
   31800    71728    300.00331   -791.57693   -7957503.3    64142.077   -7893361.3     706466.8    1.1527545    68.369467    68.369467    151.13581 
   31900    71728    299.57489   -2032.5939   -7957639.7    64050.479   -7893589.2    706337.77    1.1529651    68.355308    68.355308    151.17081 
   32000    71728    299.41055   -1646.6974   -7957823.2    64015.343   -7893807.9    706065.09    1.1534104    68.334203    68.334203    151.20581 
   32100    71728    298.84361    -2044.552   -7958034.7    63894.127   -7894140.5    706412.03    1.1528439     68.34308     68.34308    151.24081 
   32200    71728    298.96339     680.5984   -7957951.6    63919.738   -7894031.9    706397.48    1.1528677    68.334469    68.334469    151.27581 
   32300    71728    298.74719   -516.47635   -7957398.8    63873.513   -7893525.3    706653.52    1.1524499    68.338947    68.338947    151.31081 
   32400    71728    299.76895    775.34736   -7957391.7    64091.969   -7893299.7    706259.53    1.1530928    68.311993    68.311993    151.34581 
   32500    71728    299.55633   -1062.4207     -7957161     64046.51   -7893114.5    706569.24    1.1525874     68.31907     68.31907    151.38082 
   32600    71728    299.44098   -373.77615   -7957062.8    64021.848     -7893041    707518.11    1.1510416    68.357026    68.357026    151.41582 
   32700    71728    298.16985    -2088.334   -7956992.9    63750.075   -7893242.8    708215.06    1.1499089    68.382782    68.382782    151.45082 
   32800    71728    299.82523   -800.16696   -7957549.1    64104.002   -7893445.1     708715.9    1.1490963    68.399055    68.399055    151.48582 
   32900    71728    299.12532   -570.91887   -7957445.6    63954.358   -7893491.3    709067.07    1.1485272    68.408096    68.408096    151.52082 
   33000    71728    300.49227    -208.7716   -7957442.1    64246.617   -7893195.5    709482.93     1.147854    68.420251    68.420251    151.55582 
   33100    71728    300.41266   -659.55755   -7957044.8    64229.598   -7892815.2    709641.24    1.1475979    68.419984    68.419984    151.59082 
   33200    71728    300.81011    1083.3264   -7957158.7    64314.575   -7892844.1     709435.4    1.1479309    68.402163    68.402163    151.62583 
   33300    71728    299.52279   -985.41725   -7957203.6    64039.338   -7893164.3    709266.42    1.1482044    68.386124    68.386124    151.66083 
   33400    71728     298.6547   -1004.1083     -7957387    63853.737   -7893533.3    708771.31    1.1490065    68.354364    68.354364    151.69583 
   33500    71728    299.12639   -754.31216   -7957443.1    63954.587   -7893488.6    708789.86    1.1489764    68.347374    68.347374    151.73083 
   33600    71728    300.31902   -1769.9845   -7957541.7    64209.577   -7893332.2    708675.65    1.1491616    68.333986    68.333986    151.76583 
   33700    71728    300.00058   -818.47428   -7957287.8    64141.492   -7893146.3    708465.28    1.1495028    68.315965    68.315965    151.80083 
   33800    71728    300.57025   -740.20422   -7957159.6     64263.29   -7892896.4    708332.85    1.1497177    68.301706    68.301706    151.83583 
   33900    71728    301.25121   -244.45926     -7957298    64408.883   -7892889.1    708263.07     1.149831    68.290471    68.290471    151.87083 
   34000    71728    299.51705   -589.40973   -7957360.1    64038.112     -7893322    708521.22     1.149412    68.295046    68.295046    151.90584 
   34100    71728    298.37691   -733.11597   -7957289.9    63794.345   -7893495.6    709003.41    1.1486303    68.310412    68.310412    151.94084 
   34200    71728    300.11614   -1064.0105   -7957373.2    64166.201     -7893207    709680.33    1.1475347    68.335143    68.335143    151.97584 
   34300    71728    300.68147   -688.58464   -7957322.4     64287.07   -7893035.3     709910.2    1.1471631    68.338341    68.338341    152.01084 
   34400    71728    299.87316   -561.33554   -7957131.8     64114.25   -7893017.5    709696.14    1.1475092    68.320171    68.320171    152.04584 
   34500    71728    299.17913   -610.74257   -7957094.9    63965.863   -7893129.1    709501.79    1.1478235    68.302955    68.302955    152.08084 
   34600    71728    299.84414   -1203.0749   -7957483.7    64108.044   -7893375.6    709571.71    1.1477104    68.298461    68.298461    152.11584 
   34700    71728      298.046   -653.81426   -7957616.6    63723.594     -7893893    709416.03    1.1479622    68.283113    68.283113    152.15085 
   34800    71728    298.05809    366.98463   -7957320.4    63726.181   -7893594.2    710024.77     1.146978    68.304547    68.304547    152.18585 
   34900    71728     299.7695    467.33324   -7957304.5    64092.088   -7893212.4    710108.84    1.1468422    68.300737    68.300737    152.22085 
   35000    71728    299.41617    723.71644   -7957086.5    64016.544     -7893070    710315.36    1.1465088    68.302816    68.302816    152.25585 
   35100    71728     301.6197   -1111.8373   -7957362.9    64487.669   -7892875.2    710706.68    1.1458775    68.313776    68.313776    152.29085 
   35200    71728    301.55395   -914.36458   -7957228.6    64473.609     -7892755    710721.29     1.145854    68.306629    68.306629    152.32585 
   35300    71728    301.21222    890.30507   -7957207.2    64400.547   -7892806.6    710815.69    1.1457018    68.303319    68.303319    152.36085 
   35400    71728    300.49323    986.80384   -7957472.8    64246.823     -7893226    710591.97    1.1460625    68.284726    68.284726    152.39585 
   35500    71728    298.45743   -723.01778   -7957262.9    63811.561   -7893451.3    710589.74    1.1460661    68.276779    68.276779    152.43086 
   35600    71728     299.4388   -2376.3977   -7957235.6    64021.382   -7893214.2    710568.14    1.1461009    68.267904    68.267904    152.46586 
   35700    71728    300.87281   -1279.7899   -7957293.2    64327.979   -7892965.2    710454.24    1.1462847    68.254598    68.254598    152.50086 
   35800    71728    300.96668   -407.12982   -7957405.9     64348.05   -7893057.9    710225.35    1.1466541    68.235772    68.235772    152.53586 
   35900    71728    299.85568   -790.40077     -7957315    64110.511   -7893204.5     710072.7    1.1469006    68.220611    68.220611    152.57086 
   36000    71728     300.2243   -1597.0762     -7957391    64189.325   -7893201.6    709743.21    1.1474331     68.19696     68.19696    152.60586 
   36100    71728    299.23562   -819.05226   -7957129.1    63977.942   -7893151.2    709340.04    1.1480852     68.16977     68.16977    152.64086 
   36200    71728    301.46578   -1569.3644   -7957443.6     64454.76   -7892988.9    709740.82    1.1474369    68.181209    68.181209    152.67587 
   36300    71728    299.97387   -469.09682   -7957115.5    64135.781   -7892979.7    710207.33    1.1466832    68.195796    68.195796    152.71087 
   36400    71728    300.23697   -463.17946   -7957465.5    64192.035   -7893273.5     710047.3    1.1469416    68.180299    68.180299    152.74587 
   36500    71728    299.32671     -749.301   -7957516.8    63997.416   -7893519.4    710327.88    1.1464886    68.185957    68.185957    152.78087 
   36600    71728     298.4621   -1949.0788     -7957259    63812.559   -7893446.4    710744.13    1.1458171    68.198121    68.198121    152.81587 
   36700    71728    300.22493   -822.33916   -7957044.3    64189.459   -7892854.8    711280.38    1.1449533    68.216032    68.216032    152.85087 
   36800    71728    300.40849   -1743.4474   -7957035.6    64228.706   -7892806.9    711717.91    1.1442494    68.229198    68.229198    152.88587 
   36900    71728    299.04731   -809.10124   -7956969.5     63937.68   -7893031.8    711894.66    1.1439653     68.22986     68.22986    152.92087 
   37000    71728    298.99856   -1044.0923   -7957147.1    63927.256   -7893219.8    711873.65    1.1439991    68.221046    68.221046    152.95588 
   37100    71728    298.44256    152.14366   -7956918.6    63808.382   -7893110.2    711593.86    1.1444489    68.199836    68.199836    152.99088 
   37200    71728     301.6145   -2558.5852     -7957104    64486.557   -7892617.4    711927.53    1.1439125    68.208022    68.208022    153.02588 
   37300    71728    300.98054   -1147.1074   -7957007.5    64351.013   -7892656.5    711929.56    1.1439093    68.200319    68.200319    153.06088 
   37400    71728    300.01699   -80.847996   -7957163.3    64145.001   -7893018.3    711732.13    1.1442266    68.183067    68.183067    153.09588 
   37500    71728    300.77933   -40.983161   -7957448.9    64307.992     -7893141    711226.35    1.1450403    68.151046    68.151046    153.13088 
   37600    71728    299.79831   -454.59074   -7957316.9    64098.247   -7893218.6    711039.19    1.1453417    68.134292    68.134292    153.16588 
   37700    71728    299.90936   -1567.6772   -7957231.3     64121.99   -7893109.3    710890.11    1.1455819    68.119366    68.119366    153.20089 
   37800    71728    300.69962   -865.07809   -7956909.5     64290.95   -7892618.5    711012.37    1.1453849    68.117443    68.117443    153.23589 
   37900    71728    301.52992   -138.83218   -7956821.3    64468.473   -7892352.8    711187.01    1.1451036    68.118029    68.118029    153.27089 
   38000    71728    299.55168    142.30089   -7956634.3    64045.517   -7892588.8    711377.81    1.1447965    68.119388    68.119388    153.30589 
   38100    71728    300.39193   -2157.6208   -7956985.5    64225.165   -7892760.4     712117.8    1.1436069    68.147029    68.147029    153.34089 
   38200    71728    300.09381   -407.93406   -7957024.9    64161.426   -7892863.5    712405.74    1.1431447    68.153028    68.153028    153.37589 
   38300    71728    301.32348   -744.15073   -7957433.8    64424.335   -7893009.4    712573.49    1.1428755    68.153275    68.153275    153.41089 
   38400    71728    300.21853   -427.15647   -7957503.4    64188.091   -7893315.3    712638.68     1.142771    68.148619    68.148619     153.4459 
   38500    71728    297.58761    427.56734   -7957264.8    63625.589   -7893639.2    712566.21    1.1428872    68.137383    68.137383     153.4809 
   38600    71728     298.7747    -1119.387   -7957305.9    63879.395   -7893426.6    712486.51    1.1430151    68.125805    68.125805     153.5159 
   38700    71728     298.6459   -227.26438   -7957002.2    63851.856   -7893150.3    712201.65    1.1434722    68.104421    68.104421     153.5509 
   38800    71728    300.05579    45.981958   -7957291.7    64153.298   -7893138.4    712309.49    1.1432991    68.101816    68.101816     153.5859 
   38900    71728    299.50037   -2354.2526   -7957263.3    64034.545   -7893228.7     712528.9    1.1429471    68.104544    68.104544     153.6209 
   39000    71728     298.9612   -1769.2299   -7957219.8    63919.269   -7893300.5     712647.1    1.1427575    68.102434    68.102434     153.6559 
   39100    71728    298.30906   -270.41477   -7956746.2    63779.838   -7892966.4    712345.82    1.1432408    68.080284    68.080284     153.6909 
   39200    71728    299.84807    407.18021   -7956741.3    64108.885   -7892632.4     712273.9    1.1433562    68.069097    68.069097    153.72591 
   39300    71728     299.8561   -1000.4782   -7956867.2    64110.603   -7892756.6    712358.18     1.143221    68.065375    68.065375    153.76091 
   39400    71728    299.79642    -48.01761   -7957101.7    64097.843   -7893003.8    712014.54    1.1437727    68.041212    68.041212    153.79591 
   39500    71728    299.00631   -1060.2049   -7957033.2    63928.913   -7893104.3    711937.58    1.1438964    68.029794    68.029794    153.83091 
   39600    71728    299.53996   -1574.5167   -7957143.4     64043.01   -7893100.3    712067.55    1.1436876    68.028264    68.028264    153.86591 
   39700    71728    299.71003    197.06043   -7957119.8    64079.372   -7893040.4    711819.91    1.1440855    68.008699    68.008699    153.90091 
   39800    71728    300.93807   -1909.1638   -7957069.4    64341.931   -7892727.4    712273.66    1.1433566    68.022637    68.022637    153.93591 
   39900    71728    300.93804    -303.1065   -7956881.7    64341.926   -7892539.7    712900.32    1.1423516    68.044819    68.044819    153.97092 
   40000    71728    300.88879    70.606067   -7957066.8    64331.395   -7892735.4    713700.19    1.1410713    68.075244    68.075244    154.00592 
   40100    71728    299.34783   -1131.7253     -7957107    64001.931     -7893105    713846.29    1.1408378    68.074476    68.074476    154.04092 
   40200    71728    299.96422   -643.29108   -7957091.3    64133.719   -7892957.5    713631.69    1.1411808    68.056511    68.056511    154.07592 
   40300    71728    300.83491   -588.60886   -7957062.4    64319.875   -7892742.5    713386.19    1.1415736    68.037076    68.037076    154.11092 
   40400    71728    299.99933   -214.65067   -7956933.5    64141.225   -7892792.3    713361.42    1.1416132     68.02817     68.02817    154.14592 
   40500    71728    298.58312    4.3752906   -7957201.8    63838.433   -7893363.4    713353.56    1.1416258    68.020074    68.020074    154.18092 
   40600    71728    297.93042   -1479.5845   -7957033.6    63698.883   -7893334.7    713010.47    1.1421751    67.995997    67.995997    154.21592 
   40700    71728    301.11818   -645.39533   -7957452.8    64380.442   -7893072.4    712803.87    1.1425062    67.978431    67.978431    154.25093 
   40800    71728    301.50795   -1297.7539   -7957400.7    64463.775     -7892937     713429.5    1.1415043    68.000542    68.000542    154.28593 
   40900    71728    300.18206    240.21395   -7957279.6    64180.294   -7893099.3    713805.76    1.1409026    68.010757    68.010757    154.32093 
   41000    71728    299.67777    10.800881   -7957584.8    64072.475   -7893512.3    714064.88    1.1404885    68.015388    68.015388    154.35593 
   41100    71728     298.9766    -1002.683     -7957447    63922.562   -7893524.4    714200.83    1.1402714    68.014151    68.014151    154.39093 
   41200    71728    299.81955   -1119.3183   -7957170.9    64102.789   -7893068.1    714320.01    1.1400812    68.012117    68.012117    154.42593 
   41300    71728    300.49268   -1340.8994   -7957120.6    64246.705   -7892873.9    714447.48    1.1398778    68.010478    68.010478    154.46093 
   41400    71728    299.48922   -875.00635   -7957060.5    64032.162   -7893028.3    714602.59    1.1396304    68.010155    68.010155    154.49594 
   41500    71728     299.2592   -311.35839   -7957128.4    63982.981   -7893145.4    714817.63    1.1392875    68.012683    68.012683    154.53094 
   41600    71728    298.86431   -162.77804   -7957118.8    63898.553   -7893220.2    714964.71    1.1390532    68.011978    68.011978    154.56594 
   41700    71728    299.33775    49.310238   -7957285.3    63999.777   -7893285.6       715240    1.1386147     68.01737     68.01737    154.60094 
   41800    71728    299.82412   -2083.5044   -7957102.1    64103.765   -7892998.3    715387.73    1.1383796    68.016695    68.016695    154.63594 
   41900    71728    300.76317   -1107.1796   -7956979.2    64304.538   -7892674.7    715358.06    1.1384268    68.007588    68.007588    154.67094 
   42000    71728    299.57926   -2649.4074   -7956708.3    64051.413   -7892656.8    715017.67    1.1389688    67.983714    67.983714    154.70594 
   42100    71728    300.65883   -1604.6538   -7956917.9     64282.23   -7892635.7    714652.56    1.1395507    67.958667    67.958667    154.74094 
   42200    71728    299.96597   -1063.2233   -7957080.1    64134.093     -7892946    714567.15    1.1396869    67.946922    67.946922    154.77595 
   42300    71728    298.06237   -7.5466818   -7956931.6    63727.094   -7893204.5    714886.02    1.1391785    67.954398    67.954398    154.81095 
   42400    71728    299.56186    -2313.577   -7957160.2    64047.693   -7893112.5    715497.39    1.1382052    67.975765    67.975765    154.84595 
   42500    71728    301.01546   -112.47761   -7957060.3    64358.479   -7892701.8    715159.99    1.1387421    67.952056    67.952056    154.88095 
   42600    71728    301.22463    -1593.929   -7956916.1      64403.2   -7892512.9     715010.9    1.1389796    67.937297    67.937297    154.91595 
   42700    71728    301.79212   -210.83453   -7957334.9    64524.533   -7892810.3    714994.43    1.1390058    67.928841    67.928841    154.95095 
   42800    71728    299.84014    -1995.869     -7957120     64107.19   -7893012.8    715008.53    1.1389834     67.92184     67.92184    154.98595 
   42900    71728    299.25693   -654.45696   -7957113.9    63982.498   -7893131.4       714944    1.1390862    67.911107    67.911107    155.02096 
   43000    71728    299.77973   -2193.3614   -7957156.3    64094.274     -7893062    714893.55    1.1391665    67.901046    67.901046    155.05596 
   43100    71728    299.77777   -1555.3264   -7956876.1    64093.856   -7892782.2    714822.08    1.1392804    67.889989    67.889989    155.09096 
   43200    71728    301.02778   -282.19861   -7956898.4    64361.114   -7892537.3    714813.23    1.1392945     67.88191     67.88191    155.12596 
   43300    71728    300.11274   -1206.6545   -7956768.9    64165.473   -7892603.4    715163.87     1.138736    67.890898    67.890898    155.16096 
   43400    71728     300.0355   -1055.9324   -7957215.7    64148.958   -7893066.7    715854.04    1.1376381    67.915989    67.915989    155.19596 
   43500    71728     298.4421    437.87496   -7957063.4    63808.283   -7893255.1    716217.04    1.1370615    67.925548    67.925548    155.23096 
   43600    71728    299.08377    263.41755   -7956920.3    63945.475   -7892974.8    716695.44    1.1363025     67.94057     67.94057    155.26596 
   43700    71728    300.98471   -1495.0585   -7957046.9    64351.904     -7892695    716702.74    1.1362909     67.93326     67.93326    155.30097 
   43800    71728    301.62943   -1696.5439   -7957151.4    64489.747   -7892661.7    716680.37    1.1363264    67.924546    67.924546    155.33597 
   43900    71728    300.29118   -1197.8873   -7956978.6    64203.625   -7892774.9    716894.81    1.1359865    67.927054    67.927054    155.37097 
   44000    71728    299.22553   -836.54229   -7956878.1    63975.783   -7892902.3    717094.74    1.1356698    67.928875    67.928875    155.40597 
   44100    71728    298.19928    567.83552     -7957001    63756.367   -7893244.6    716557.08    1.1365219    67.895759    67.895759    155.44097 
   44200    71728    298.25248   -1503.0471   -7957224.8    63767.741   -7893457.1    716406.27    1.1367612    67.880971    67.880971    155.47597 
   44300    71728    299.34705   -394.20388   -7957481.9    64001.764   -7893480.1    716060.89    1.1373094    67.856969    67.856969    155.51097 
   44400    71728    299.80909   -804.15125   -7957130.6    64100.551   -7893030.1    715894.28    1.1375741     67.84144     67.84144    155.54598 
   44500    71728    299.97187   -780.78006   -7956953.9    64135.355   -7892818.6    715382.66    1.1383877    67.809565    67.809565    155.58098 
   44600    71728    299.90113   -2301.9295   -7957031.9    64120.229   -7892911.7     715443.6    1.1382907    67.804826    67.804826    155.61598 
   44700    71728    300.58424   -581.25653   -7957337.9    64266.282   -7893071.7    715568.47    1.1380921    67.803118    67.803118    155.65098 
   44800    71728    298.39772     861.5535   -7957293.5    63798.795   -7893494.7    716012.96    1.1373856    67.816549    67.816549    155.68598 
   44900    71728    298.07551     -1555.21   -7957386.8    63729.904   -7893656.9    716234.06    1.1370345    67.819396    67.819396    155.72098 
   45000    71728    299.54114   -105.05616   -7957177.6    64043.262   -7893134.3    716220.97    1.1370553    67.811156    67.811156    155.75598 
   45100    71728    299.70537   -1739.8487   -7956975.2    64078.376   -7892896.8    715868.43    1.1376152    67.786849    67.786849    155.79099 
   45200    71728    300.63404   -1106.4824   -7957109.7    64276.928   -7892832.8    715980.02    1.1374379    67.784517    67.784517    155.82599 
   45300    71728    300.12932   -658.35908   -7957140.9    64169.018   -7892971.9    716340.96    1.1368648    67.793988    67.793988    155.86099 
   45400    71728    300.18546    102.09363   -7957262.4     64181.02   -7893081.3    716746.16    1.1362221    67.805546    67.805546    155.89599 
   45500    71728    299.92125   -814.95438   -7957281.1    64124.532   -7893156.6    716493.92    1.1366221    67.786004    67.786004    155.93099 
   45600    71728    301.52713    177.68078     -7957445    64467.876   -7892977.1    716219.83    1.1370571    67.765433    67.765433    155.96599 
   45700    71728    300.75797    179.59003   -7957010.1    64303.427   -7892706.7    716265.19     1.136985    67.759976    67.759976    156.00099 
   45800    71728    301.72706   -1608.7455   -7956949.7    64510.621     -7892439    716382.71    1.1367985    67.757933    67.757933    156.03599 
   45900    71728    299.72143    271.48401   -7956765.3     64081.81   -7892683.5    715802.47      1.13772    67.722892    67.722892      156.071 
   46000    71728    298.77373   -350.75375   -7956985.7    63879.186   -7893106.5    715490.45    1.1382162    67.700539    67.700539      156.106 
   46100    71728     301.0224   -316.96768   -7957408.4    64359.963   -7893048.5    715431.77    1.1383095    67.690175    67.690175      156.141 
   46200    71728    300.26215   -1094.8066   -7957182.4    64197.418   -7892984.9    715907.54    1.1375531     67.70509     67.70509      156.176 
   46300    71728    300.82994    417.45919   -7956982.8    64318.813     -7892664    715665.08    1.1379385     67.68604     67.68604      156.211 
   46400    71728    302.37674   -724.85313   -7956988.1    64649.526   -7892338.6    715946.51    1.1374911    67.691764    67.691764      156.246 
   46500    71728     300.9813    572.63506   -7957077.3    64351.176   -7892726.2    716393.84    1.1367809    67.705325    67.705325      156.281 
   46600    71728    299.45715   -1153.0827   -7957008.6    64025.304   -7892983.3    716564.46    1.1365102    67.705805    67.705805    156.31601 
   46700    71728      300.388    -1191.549   -7957262.3    64224.324     -7893038    717325.73    1.1353041    67.734178    67.734178    156.35101 
   46800    71728    299.59681   -1325.0963   -7957039.3    64055.166   -7892984.2    717698.02    1.1347151     67.74417     67.74417    156.38601 
   46900    71728      300.383   -753.49414   -7957089.1    64223.257   -7892865.9    717750.29    1.1346325    67.739057    67.739057    156.42101 
   47000    71728    301.98117   -695.70475   -7957118.1    64564.952   -7892553.1    717615.01    1.1348464    67.725096    67.725096    156.45601 
   47100    71728       301.04   0.41134535   -7956961.9    64363.726   -7892598.2    718050.75    1.1341577    67.738078    67.738078    156.49101 
   47200    71728    300.02014   -667.14624   -7957166.8    64145.675   -7893021.1    718007.58    1.1342259    67.728468    67.728468    156.52601 
   47300    71728    298.81513   -1591.5362   -7956960.7    63888.038   -7893072.6    717843.85    1.1344846    67.713175    67.713175    156.56101 
   47400    71728    301.12722     -661.535   -7957257.8    64382.374   -7892875.4    717757.53    1.1346211    67.701536    67.701536    156.59602 
   47500    71728     299.7275    -1121.069   -7956996.7    64083.108   -7892913.6    717635.64    1.1348138    67.688223    67.688223    156.63102 
   47600    71728    301.55342    -80.22112   -7957444.5    64473.497     -7892971    717552.13    1.1349459    67.676723    67.676723    156.66602 
   47700    71728    298.29422   -704.16517   -7957144.8    63776.666   -7893368.1    717507.12    1.1350171    67.667043    67.667043    156.70102 
   47800    71728    296.59528    -631.1359   -7957129.6    63413.424   -7893716.2    717572.21    1.1349141    67.662555    67.662555    156.73602 
   47900    71728    297.89449   -546.74267   -7956985.8    63691.202   -7893294.6    717872.69    1.1344391    67.669165    67.669165    156.77102 
   48000    71728    299.94293   -372.07287   -7957094.7    64129.166   -7892965.6    718240.87    1.1338575    67.678961    67.678961    156.80602 
   48100    71728    299.93547   -1232.1479   -7956931.6    64127.572     -7892804    718411.39    1.1335884    67.679442    67.679442    156.84103 
   48200    71728    300.24834   -620.02054   -7956989.4    64194.464     -7892795    718536.87    1.1333904    67.677801    67.677801    156.87603 
   48300    71728    298.96441   -1496.2179   -7957157.5    63919.956   -7893237.5    718917.82    1.1327899    67.688188    67.688188    156.91103 
   48400    71728    298.61455   -130.51872   -7957142.5    63845.153   -7893297.3     718902.3    1.1328143     67.67991     67.67991    156.94603 
   48500    71728    298.89865   -297.81921     -7956938    63905.895   -7893032.1    718981.47    1.1326896     67.67609     67.67609    156.98103 
   48600    71728    299.86743   -348.82887   -7956895.6    64113.025   -7892782.6    718576.13    1.1333285    67.649469    67.649469    157.01603 
   48700    71728    300.03755   -1287.6421   -7956880.5    64149.397   -7892731.2    718561.53    1.1333515    67.641243    67.641243    157.05103 
   48800    71728    299.88609    78.830952   -7956896.7    64117.014   -7892779.7    718817.88    1.1329474     67.64577     67.64577    157.08603 
   48900    71728     299.9751   -588.00442   -7956972.7    64136.044   -7892836.6    719199.59    1.1323461    67.656192    67.656192    157.12104 
   49000    71728    300.09337   -317.12988   -7957118.2    64161.332   -7892956.8    719337.07    1.1321296    67.655123    67.655123    157.15604 
   49100    71728    299.73353    883.78669     -7957148    64084.397   -7893063.6    718844.91    1.1329048    67.624444    67.624444    157.19104 
   49200    71728    299.65184   -2089.7204   -7957214.3    64066.931   -7893147.4    718361.59     1.133667    67.594182    67.594182    157.22604 
   49300    71728    298.84631   -1266.4974     -7956951    63894.704   -7893056.3    717936.74    1.1343378     67.56667     67.56667    157.26104 
   49400    71728    300.34227   -753.67967   -7956888.5    64214.548     -7892674       718024       1.1342    67.563258    67.563258    157.29604 
   49500    71728    300.76365    720.19419   -7956885.5    64304.641   -7892580.8    717757.55     1.134621    67.543206    67.543206    157.33104 
   49600    71728    299.31156   -336.57179     -7957028    63994.178   -7893033.9    718073.21    1.1341223    67.550543    67.550543    157.36605 
   49700    71728    299.02398   -160.65233   -7957235.2    63932.691   -7893302.5    718511.39    1.1334306    67.563637    67.563637    157.40105 
   49800    71728    299.48211    1148.0447   -7957129.7    64030.641     -7893099     718879.9    1.1328496    67.573448    67.573448    157.43605 
   49900    71728    300.70994    -984.7726   -7957103.3    64293.157   -7892810.2    719072.11    1.1325468     67.57497     67.57497    157.47105 
   50000    71728    299.80817    -1291.972   -7956828.6    64100.354   -7892728.3    719159.59     1.132409    67.571571    67.571571    157.50605 
   50100    71728    299.43022   -1652.0476   -7956737.4    64019.548   -7892717.8    719465.32    1.1319278    67.578424    67.578424    157.54105 
   50200    71728    299.55946   -1044.6133   -7956563.3    64047.179   -7892516.1    720055.34    1.1310003    67.598619    67.598619    157.57605 
   50300    71728    301.47147   -1072.3712   -7956820.1    64455.976   -7892364.1     720381.2    1.1304887    67.606406    67.606406    157.61106 
   50400    71728     298.8942    171.01057   -7956686.7    63904.943   -7892781.7    720134.01    1.1308768    67.587301    67.587301    157.64606 
   50500    71728    299.08048   -1712.6048   -7956937.2    63944.771   -7892992.4     720548.8    1.1302258    67.599259    67.599259    157.68106 
   50600    71728    298.33423   -854.94065   -7956811.5    63785.219   -7893026.3    720094.81    1.1309383    67.570461    67.570461    157.71606 
   50700    71728    299.71266   -148.62185   -7956760.1    64079.935   -7892680.1    720230.17    1.1307258    67.569314    67.569314    157.75106 
   50800    71728    300.90212   -535.78612   -7956682.4    64334.246   -7892348.1     720293.5    1.1306264     67.56479     67.56479    157.78606 
   50900    71728    301.10659    -1071.109   -7956838.8    64377.963   -7892460.8    720429.39    1.1304131     67.56367     67.56367    157.82106 
   51000    71728    299.95481   -1293.3945   -7956790.6    64131.708   -7892658.9    720374.51    1.1304992    67.553605    67.553605    157.85606 
   51100    71728    299.21781   -604.45634   -7956734.4    63974.134   -7892760.2    720629.54    1.1300991    67.558073    67.558073    157.89107 
   51200    71728    298.94713   -2514.0661   -7956708.4    63916.261   -7892792.1    720968.89    1.1295672    67.566489    67.566489    157.92607 
   51300    71728    300.66414   -1532.1662   -7956675.6    64283.365   -7892392.3    721130.12    1.1293147    67.566557    67.566557    157.96107 
   51400    71728    300.72366   -1260.6219   -7956362.1    64296.091     -7892066    721227.84    1.1291616     67.56365     67.56365    157.99607 
[...]
  287600    71728    298.38775   -372.15066   -7957695.1    63796.662   -7893898.5     964397.9   0.84444689    63.302058    63.302058    240.66925 
  287700    71728    299.37891   -760.37377   -7957423.9    64008.576   -7893415.3    964470.83   0.84438304    63.299849    63.299849    240.70425 
  287800    71728    300.77792   -836.01224   -7957672.2    64307.691   -7893364.6    964861.66   0.84404101     63.30807     63.30807    240.73925 
  287900    71728    299.74586    88.111104   -7957757.1    64087.032     -7893670    965204.11   0.84374156    63.314701    63.314701    240.77425 
  288000    71728    298.90304   -571.57503   -7957791.9    63906.834   -7893885.1    965629.08   0.84337023    63.324035    63.324035    240.80925 
  288100    71728    299.38204   -769.06986   -7957810.8    64009.246   -7893801.5    965963.31   0.84307842    63.330391    63.330391    240.84425 
  288200    71728    299.27321    406.76171   -7957677.1    63985.978   -7893691.2    965487.91   0.84349354    63.310205    63.310205    240.87925 
  288300    71728    298.72309   -613.90607   -7957592.6     63868.36   -7893724.3    965436.55   0.84353841    63.303922    63.303922    240.91426 
  288400    71728    299.68155    719.97974   -7957792.3    64073.282     -7893719     965622.5   0.84337597     63.30542     63.30542    240.94926 
  288500    71728    300.76956    701.50529     -7957544    64305.905   -7893238.1    965786.66   0.84323262    63.306203    63.306203    240.98426 
  288600    71728    300.51771   -206.05873   -7957296.6    64252.058   -7893044.5    966282.28   0.84280011    63.317846    63.317846    241.01926 
  288700    71728    300.66311    -75.74509   -7957650.2    64283.144   -7893367.1    966328.71   0.84275962     63.31477     63.31477    241.05426 
  288800    71728    299.37511   -131.01705   -7957718.5    64007.765   -7893710.8    966850.73    0.8423046    63.327272    63.327272    241.08926 
  288900    71728    299.63438   -216.28804   -7957865.8    64063.198   -7893802.6    966966.94   0.84220337    63.326481    63.326481    241.12426 
  289000    71728    300.70298    686.63677   -7957929.5    64291.669   -7893637.8    966999.67   0.84217486    63.322957    63.322957    241.15926 
  289100    71728     301.2756   -718.59856   -7957721.1    64414.097     -7893307    967394.32    0.8418313    63.331282    63.331282    241.19427 
  289200    71728    301.27922   -562.52155   -7957658.9    64414.871     -7893244    968099.05   0.84121848    63.349749    63.349749    241.22927 
  289300    71728    299.63039   -512.56086     -7957587    64062.344   -7893524.7    968106.69   0.84121185    63.345403    63.345403    241.26427 
  289400    71728    300.72248   -310.98856   -7958029.7    64295.837   -7893733.9    967803.09   0.84147573    63.330877    63.330877    241.29927 
  289500    71728    299.78751   -598.20458   -7957839.5    64095.937   -7893743.5    968175.45    0.8411521    63.338465    63.338465    241.33427 
  289600    71728    300.15198   -361.86925   -7957665.2    64173.862   -7893491.4    968890.06   0.84053171    63.357241    63.357241    241.36927 
  289700    71728    301.53682    1207.6274     -7957616    64469.949     -7893146    969399.44   0.84009004    63.369299    63.369299    241.40427 
  289800    71728    300.45022   -864.67685     -7957480    64237.629   -7893242.4     969968.7     0.839597    63.383308    63.383308    241.43928 
  289900    71728    300.63466    926.11613   -7958067.1    64277.062     -7893790    969318.95    0.8401598    63.357483    63.357483    241.47428 
  290000    71728    299.37572    846.67468   -7957835.4    64007.894   -7893827.5    968830.63   0.84058327    63.336932    63.336932    241.50928 
  290100    71728    300.29774   -113.98858   -7957717.2    64205.027   -7893512.2    968997.17    0.8404388    63.337786    63.337786    241.54428 
  290200    71728    299.98947   -29.277356   -7957528.5    64139.117   -7893389.4    969447.66   0.84004826    63.347917    63.347917    241.57928 
  290300    71728    299.59154    347.17784   -7957762.7    64054.039   -7893708.7    969799.63   0.83974338    63.354826    63.354826    241.61428 
  290400    71728     298.7781    66.019803   -7957850.5    63880.121   -7893970.4    969752.22   0.83978443     63.34869     63.34869    241.64928 
  290500    71728    299.60028   -86.711933   -7957950.4    64055.906   -7893894.5    969769.16   0.83976976    63.344655    63.344655    241.68428 
  290600    71728    300.72883   -249.57736   -7957889.1    64297.196   -7893591.9    969509.03   0.83999508    63.331573    63.331573    241.71929 
  290700    71728    299.71842   -562.30861   -7957459.3    64081.165   -7893378.1    969106.24   0.84034421    63.313832    63.313832    241.75429 
  290800    71728    300.79342   -205.69821   -7957719.1    64311.006   -7893408.1    969067.98   0.84037738       63.308       63.308    241.78929 
  290900    71728     298.7441   -148.44974   -7957529.5    63872.851   -7893656.7    969586.09   0.83992832    63.320338    63.320338    241.82429 
  291000    71728    299.35171   -318.85804   -7958264.9    64002.762   -7894262.2    970065.85   0.83951292    63.331419    63.331419    241.85929 
  291100    71728     299.2042    54.778052   -7958322.7    63971.223   -7894351.5    969988.18   0.83958014    63.324302    63.324302    241.89429 
  291200    71728    299.86779   -830.01161   -7958061.7    64113.102   -7893948.6     969965.6   0.83959969    63.318984    63.318984    241.92929 
  291300    71728    300.31581   -289.11689   -7957883.9    64208.889     -7893675    969698.79    0.8398307    63.305695    63.305695     241.9643 
  291400    71728    300.27487    1107.2346   -7957695.2    64200.138     -7893495    969852.18   0.83969787    63.306124    63.306124     241.9993 
  291500    71728    302.16668   -73.343108   -7957881.1    64604.615   -7893276.5    969921.09   0.83963822    63.303795    63.303795     242.0343 
  291600    71728    300.37547    -282.7686   -7957761.6    64221.646   -7893539.9    970317.29   0.83929537    63.312145    63.312145     242.0693 
  291700    71728    298.15197    499.20329   -7957762.7    63746.252   -7894016.4    970649.66   0.83900799     63.31841     63.31841     242.1043 
  291800    71728     299.4565   -458.54225   -7957984.6    64025.166   -7893959.4    971172.35   0.83855642    63.330878    63.330878     242.1393 
  291900    71728     299.8746   -485.25447     -7957867    64114.558   -7893752.4    971693.51   0.83810667    63.343291    63.343291     242.1743 
  292000    71728     300.3452   -1058.4644   -7957721.3    64215.173   -7893506.1    971421.37   0.83834147    63.329843    63.329843    242.20931 
  292100    71728    302.44566   -830.54335   -7957688.8    64664.262   -7893024.6    971317.61   0.83843102    63.321886    63.321886    242.24431 
  292200    71728    301.77656    -556.5966   -7957617.5    64521.205   -7893096.3    971665.84   0.83813054    63.328661    63.328661    242.27931 
  292300    71728    300.16139    728.65206   -7957779.6    64175.875   -7893603.7    971720.36   0.83808351    63.325864    63.325864    242.31431 
  292400    71728    299.64557   -310.85907   -7957846.2     64065.59   -7893780.7     971699.7   0.83810133    63.320617    63.320617    242.34931 
  292500    71728    299.03919   -513.07745   -7957839.8    63935.944   -7893903.9    971823.49   0.83799458    63.320078    63.320078    242.38431 
  292600    71728    299.37295   -533.45216   -7957759.3    64007.304     -7893752    971653.06   0.83814157    63.309955    63.309955    242.41931 
  292700    71728    300.54041    429.28573   -7957484.6    64256.912   -7893227.7    971453.74   0.83831353    63.298891    63.298891    242.45431 
  292800    71728    300.42419   -119.22057   -7957502.4    64232.062   -7893270.3    971355.47   0.83839834    63.291122    63.291122    242.48932 
  292900    71728    299.21523    -236.4711   -7957590.5    63973.582   -7893616.9     971381.1   0.83837622    63.287389    63.287389    242.52432 
  293000    71728    299.45081   -1288.2571   -7957844.4     64023.95   -7893820.4    971373.56   0.83838273    63.282577    63.282577    242.55932 
  293100    71728    300.93744    457.89168   -7958264.4    64341.798   -7893922.6    971374.88   0.83838159    63.278055    63.278055    242.59432 
  293200    71728    298.07009    558.33334   -7957836.8    63728.745   -7894108.1    971730.63   0.83807465    63.285076    63.285076    242.62932 
  293300    71728    300.99947    244.03005   -7957961.3     64355.06   -7893606.2     972478.8   0.83742989    63.304868    63.304868    242.66432 
  293400    71728    301.95677      457.185   -7957925.8    64559.736   -7893366.1    972750.04   0.83719638     63.30913     63.30913    242.69932 
  293500    71728    299.47459   -874.09947   -7957737.3    64029.033   -7893708.3    972885.52    0.8370798    63.308974    63.308974    242.73433 
  293600    71728    299.26483    1631.6285   -7957952.9    63984.186   -7893968.7    972755.91   0.83719133    63.300193    63.300193    242.76933 
  293700    71728    300.48004   -1393.8007   -7958185.3    64244.004   -7893941.3    973235.65   0.83677865    63.311236    63.311236    242.80433 
  293800    71728    298.50116   -737.37022   -7957572.1    63820.911   -7893751.2    974040.01   0.83608764    63.332829    63.332829    242.83933 
  293900    71728    300.42004   -1089.1446   -7957422.6    64231.175   -7893191.4    975203.87   0.83508981    63.366089    63.366089    242.87433 
  294000    71728    301.75284    23.550674   -7957749.1    64516.133     -7893233    975406.16   0.83491662    63.368094    63.368094    242.90933 
  294100    71728    300.72164   -150.35506     -7957900    64295.658   -7893604.3    974921.44   0.83533173    63.347784    63.347784    242.94433 
  294200    71728    299.63974    418.66131   -7957880.4    64064.343   -7893816.1    974554.24   0.83564648     63.33129     63.33129    242.97933 
  294300    71728    298.19754   -351.42478   -7957605.8    63755.996   -7893849.8    974544.99   0.83565441    63.326429    63.326429    243.01434 
  294400    71728     300.8099    528.93396   -7958023.1    64314.528   -7893708.6    975063.98   0.83520962    63.338728    63.338728    243.04934 
  294500    71728    300.96714    71.044763     -7957811    64348.148   -7893462.9    975727.54   0.83464162    63.355714    63.355714    243.08434 
  294600    71728    299.85612     599.9984   -7957444.3    64110.607   -7893333.7    976017.96   0.83439327    63.360581    63.360581    243.11934 
  294700    71728    300.62844    654.42892   -7957877.4    64275.732   -7893601.7    976336.63   0.83412093    63.366362    63.366362    243.15434 
  294800    71728    299.49759   -935.15422   -7958038.5    64033.952   -7894004.6       976473   0.83400444    63.366227    63.366227    243.18934 
  294900    71728    299.80809    -732.9467   -7958059.1    64100.338   -7893958.7    976126.54   0.83430045    63.350426    63.350426    243.22434 
  295000    71728     299.3795    325.29498   -7957708.2    64008.703   -7893699.5    975843.03   0.83454284    63.336669    63.336669    243.25935 
  295100    71728    300.24501   -879.71031     -7957821    64193.752   -7893627.3    976048.34    0.8343673    63.338774    63.338774    243.29435 
  295200    71728    300.68865   -748.26135   -7958000.6    64288.605     -7893712    975726.41   0.83464259    63.323773    63.323773    243.32935 
  295300    71728     299.5254   -278.10431     -7957818    64039.898   -7893778.1    975419.18   0.83490547     63.30925     63.30925    243.36435 
  295400    71728    300.36035   -152.72609   -7957969.2    64218.413   -7893750.8    975188.48   0.83510299    63.297211    63.297211    243.39935 
  295500    71728    299.76603    155.16352   -7957920.3    64091.344   -7893828.9    975351.51    0.8349634     63.29795     63.29795    243.43435 
  295600    71728    300.75601   -1373.5968   -7958298.5    64303.007   -7893995.5    975269.31   0.83503377    63.290733    63.290733    243.46935 
  295700    71728    298.21157     109.0721   -7957841.1    63758.993   -7894082.1    975143.34   0.83514165    63.282097    63.282097    243.50435 
  295800    71728    299.99478   -1059.2953   -7957817.9    64140.252   -7893677.7    975675.18   0.83468641    63.294803    63.294803    243.53936 
  295900    71728    301.42314    717.84652   -7957905.6    64445.642   -7893459.9    975940.65   0.83445937    63.298865    63.298865    243.57436 
  296000    71728    301.72422    150.48573   -7958159.7    64510.014   -7893649.7    976992.19   0.83356123    63.328407    63.328407    243.60936 
  296100    71728    299.96269   -669.10077   -7958125.2    64133.393   -7893991.8    977929.77   0.83276206    63.354235    63.354235    243.64436 
  296200    71728    300.10361    447.48824   -7958110.3     64163.52   -7893946.8    977938.92   0.83275427    63.349981    63.349981    243.67936 
  296300    71728    299.68529   -49.527551   -7957828.7    64074.083   -7893754.7    977953.88   0.83274153    63.345917    63.345917    243.71436 
  296400    71728     300.4685   -456.48406   -7957737.5    64241.536     -7893496    977696.71   0.83296058    63.333039    63.333039    243.74936 
  296500    71728    301.69484   -630.65274   -7957840.9    64503.734   -7893337.1    977398.99    0.8332143     63.31885     63.31885    243.78437 
  296600    71728    299.59326   -234.29694   -7957975.7    64054.407   -7893921.3     977689.7   0.83296655     63.32372     63.32372    243.81937 
  296700    71728    298.43913    -228.3241   -7957917.7    63807.649     -7894110    978378.07   0.83238049    63.341462    63.341462    243.85437 
  296800    71728    300.17955   -799.58501   -7957936.4    64179.757   -7893756.6       978784   0.83203527    63.350055    63.350055    243.88937 
  296900    71728    299.91271   -128.21475     -7957739    64122.705   -7893616.3    978880.28   0.83195343    63.348625    63.348625    243.92437 
  297000    71728     299.6771    937.53582   -7957850.8     64072.33   -7893778.5    978345.53   0.83240817    63.326776    63.326776    243.95937 
  297100    71728    297.63832   -302.24948   -7957843.6     63636.43   -7894207.1    978508.64   0.83226941    63.327512    63.327512    243.99437 
  297200    71728    298.04298   -831.41715   -7958068.5    63722.948   -7894345.5    978620.21   0.83217453     63.32658     63.32658    244.02938 
  297300    71728    299.66715    313.56762   -7958211.6    64070.204   -7894141.4     978767.7   0.83204913    63.326811    63.326811    244.06438 
  297400    71728    300.40176   -875.39118   -7958093.5    64227.267   -7893866.3    978843.71   0.83198452    63.324729    63.324729    244.09938 
  297500    71728     301.2214     1090.703   -7957988.3    64402.509   -7893585.8    978738.23   0.83207418    63.316778    63.316778    244.13438 
  297600    71728    301.16455    1580.3413   -7957947.4    64390.354   -7893557.1    978564.13   0.83222222    63.306608    63.306608    244.16938 
  297700    71728    301.09851   -1100.9278   -7958294.3    64376.236   -7893918.1    978841.22   0.83198663    63.311033    63.311033    244.20438 
  297800    71728    299.30264    760.98798   -7958268.4     63992.27   -7894276.1    978915.82   0.83192323    63.308909    63.308909    244.23938 
  297900    71728    299.61682    116.30254   -7958263.7    64059.443   -7894204.3    979258.93   0.83163175    63.315466    63.315466    244.27438 
  298000    71728    298.65253   -232.00175   -7957759.3    63853.273     -7893906    978904.08   0.83193321    63.299458    63.299458    244.30939 
  298100    71728     300.5584    549.72336   -7957857.1    64260.757   -7893596.3    978908.73   0.83192926    63.295075    63.295075    244.34439 
  298200    71728    300.79064    410.81715   -7958045.2    64310.412   -7893734.8    979299.25    0.8315975    63.303165    63.303165    244.37939 
  298300    71728    300.17611   -368.91954   -7958206.5    64179.022   -7894027.4    979399.86   0.83151208    63.301884    63.301884    244.41439 
  298400    71728     298.9862    207.51874   -7958027.7    63924.613   -7894103.1    979343.21   0.83156018    63.295521    63.295521    244.44939 
  298500    71728    300.34498   -469.32454   -7958177.4    64215.128   -7893962.3    979612.26   0.83133179    63.299683    63.299683    244.48439 
  298600    71728    300.09501   -421.44405   -7957630.4    64161.681   -7893468.7    980763.61   0.83035586    63.332337    63.332337    244.51939 
  298700    71728     302.0623   -462.50479   -7957743.9    64582.299   -7893161.6    981950.27    0.8293524    63.366105    63.366105     244.5544 
  298800    71728    300.44064    999.90413   -7957680.7    64235.579   -7893445.2     982329.1   0.82903257    63.373792    63.373792     244.5894 
  298900    71728    300.30044   -257.08397   -7957864.6    64205.604     -7893659    982697.43   0.82872183    63.381137    63.381137     244.6244 
  299000    71728     298.9197    -335.4627   -7957765.1    63910.396   -7893854.7    983171.18    0.8283225    63.391878    63.391878     244.6594 
  299100    71728    299.23947   -77.979547   -7957830.6    63978.765   -7893851.9    983062.46   0.82841411    63.383839    63.383839     244.6944 
  299200    71728    301.70239    681.98897   -7957740.8    64505.347   -7893235.4     982751.2   0.82867649    63.369272    63.369272     244.7294 
  299300    71728    301.67977   -173.66235     -7957715    64500.511   -7893214.5    982504.08   0.82888492    63.356774    63.356774     244.7644 
  299400    71728    299.94107   -589.08881   -7957786.3    64128.769   -7893657.5    982081.21   0.82924182    63.338609    63.338609     244.7994 
  299500    71728    299.99805   -750.68312   -7958053.6    64140.953   -7893912.7    981608.16   0.82964145    63.318826    63.318826    244.83441 
  299600    71728    300.28792   -1216.5297   -7958211.9    64202.926     -7894009    981336.06   0.82987149    63.305525    63.305525    244.86941 
  299700    71728    298.97486    94.030574   -7958073.8    63922.189   -7894151.6    981277.44   0.82992106     63.29911     63.29911    244.90441 
  299800    71728    298.92463    20.184785   -7958238.9    63911.449   -7894327.4    981870.98   0.82941938    63.313727    63.313727    244.93941 
  299900    71728     299.4229   -467.95619   -7958214.5    64017.983   -7894196.5    982627.11   0.82878114    63.333576    63.333576    244.97441 
  300000    71728    299.57834   -112.56797   -7957844.7    64051.216   -7893793.5    983472.28   0.82806891    63.356281    63.356281    245.00941 
Loop time of 144096 on 56 procs for 300000 steps with 71728 atoms

Performance: 0.045 ns/day, 533.689 hours/ns, 2.082 timesteps/s
95.1% CPU use with 56 MPI tasks x no OpenMP threads

MPI task timing breakdown:
Section |  min time  |  avg time  |  max time  |%varavg| %total
---------------------------------------------------------------
Pair    | 48334      | 67233      | 75614      |2621.9 | 46.66
Neigh   | 2986.8     | 4584.8     | 5877.1     |1162.4 |  3.18
Comm    | 3247.3     | 11292      | 28873      |6195.0 |  7.84
Output  | 7.5871     | 23.369     | 23.668     |  44.0 |  0.02
Modify  | 58932      | 60953      | 63826      | 490.3 | 42.30
Other   |            | 10         |            |       |  0.01

Nlocal:    1280.86 ave 1957 max 322 min
Histogram: 6 2 6 5 0 7 6 4 3 17
Nghost:    10722.1 ave 15312 max 6546 min
Histogram: 6 14 4 8 0 0 6 2 0 16
Neighs:    1.05376e+06 ave 1.86411e+06 max 205800 min
Histogram: 7 8 2 4 8 3 4 2 11 7

Total # of neighbors = 59010290
Ave neighs/atom = 822.695
Neighbor list builds = 30000
Dangerous builds not checked
write_restart restart.after_deform
unfix 1
unfix 2
unfix 3
unfix std
unfix bd

Please see the log.cite file for references relevant to this simulation

Total wall time: 40:01:38
