LAMMPS (2 Aug 2019)
#lammps code to run fracture simulations on PNC with six cnt
#functionalized 10 % with -OH group
#cnt not fixed during nvt equilibration in materials studio

units		real
atom_style 	charge
boundary 	p p p
read_data       six_cnt_f.data
  orthogonal box = (-0.162694 -0.0433282 -1.42564) to (69.8373 69.9567 138.574)
  2 by 2 by 7 MPI processor grid
  reading atoms ...
  72620 atoms
  read_data CPU = 0.147978 secs

pair_style	reax/c control_file lgvdw yes
pair_coeff	* * ffield.reax.lg C C H O H C C C O O C C
Reading potential file ffield.reax.lg with DATE: 2012-01-06

neighbor	4 bin
neigh_modify	every 10 delay 0 check no

thermo 100
thermo_style custom step atoms temp press pe ke etotal vol density lx ly lz      #output variables

fix std all qeq/reax 1 0.0 10.0 1e-6 reax/c
min_style	 cg							#conjugate gradient minimization
minimize	 1.0e-6 1.0e-8 10000 100000
WARNING: Using 'neigh_modify every 1 delay 0 check yes' setting during minimization (../min.cpp:168)
Neighbor list info ...
  update every 1 steps, delay 0 steps, check yes
  max neighbors/atom: 2000, page size: 100000
  master list distance cutoff = 14
  ghost atom cutoff = 14
  binsize = 7, bins = 10 10 20
  2 neighbor lists, perpetual/occasional/extra = 2 0 0
  (1) pair reax/c, perpetual
      attributes: half, newton off, ghost
      pair build: half/bin/newtoff/ghost
      stencil: half/ghost/bin/3d/newtoff
      bin: standard
  (2) fix qeq/reax, perpetual, copy from (1)
      attributes: half, newton off, ghost
      pair build: copy
      stencil: none
      bin: none
Per MPI rank memory allocation (min/avg/max) = 441.4 | 465.7 | 493.7 Mbytes
Step Atoms Temp Press PotEng KinEng TotEng Volume Density Lx Ly Lz 
       0    72620            0    338209.58   -7741466.2            0   -7741466.2       686000    1.2046943           70           70          140 
      24    72620            0    19018.622   -8069992.9            0   -8069992.9       686000    1.2046943           70           70          140 
Loop time of 34.5953 on 28 procs for 24 steps with 72620 atoms

99.6% CPU use with 28 MPI tasks x no OpenMP threads

Minimization stats:
  Stopping criterion = energy tolerance
  Energy initial, next-to-last, final = 
        -7741466.23543     -8069989.55734     -8069992.94884
  Force two-norm initial, final = 64751.8 10520.7
  Force max component initial, final = 8433.83 470.781
  Final line search alpha, max atom move = 0.000117644 0.0553848
  Iterations, force evaluations = 24 42

MPI task timing breakdown:
Section |  min time  |  avg time  |  max time  |%varavg| %total
---------------------------------------------------------------
Pair    | 15.45      | 17.501     | 18.3       |  19.9 | 50.59
Neigh   | 0          | 0          | 0          |   0.0 |  0.00
Comm    | 0.046718   | 0.84531    | 2.8944     |  90.6 |  2.44
Output  | 0          | 0          | 0          |   0.0 |  0.00
Modify  | 16.232     | 16.234     | 16.237     |   0.0 | 46.93
Other   |            | 0.01514    |            |       |  0.04

Nlocal:    2593.57 ave 2760 max 2378 min
Histogram: 4 0 3 2 2 4 3 0 4 6
Nghost:    17568.5 ave 18471 max 16783 min
Histogram: 5 5 2 0 4 2 1 1 3 5
Neighs:    2.33414e+06 ave 2.60439e+06 max 2.0264e+06 min
Histogram: 4 2 2 2 4 1 4 1 1 7

Total # of neighbors = 65355822
Ave neighs/atom = 899.97
Neighbor list builds = 0
Dangerous builds not checked


#set of equilibrations to reduce the energy of the system

reset_timestep 0
timestep 0.5
#fix nvt_equi all nvt temp 300.0 300.0 25.0
fix npt_equi all npt temp 300.0 300.0 25.0 iso 1.0 1.0 250.0
dump npt_dump all custom 500 dump.npt id type x y z
run 100000
Per MPI rank memory allocation (min/avg/max) = 439.8 | 464.1 | 492.2 Mbytes
Step Atoms Temp Press PotEng KinEng TotEng Volume Density Lx Ly Lz 
       0    72620            0     19018.61     -8069993            0     -8069993       686000    1.2046943           70           70          140 
     100    72620    121.10665   -725.90556   -8090985.7    26215.163   -8064770.5    691714.67    1.1947416    70.193839    70.193839    140.38768 
     200    72620    157.97511   -827.11467     -8088918    34195.837   -8054722.2    704044.16    1.1738189    70.608443    70.608443    141.21689 
     300    72620     205.3926    2341.4861   -8086096.6     44459.99   -8041636.6    715282.72    1.1553758    70.982166    70.982166    141.96433 
     400    72620     245.0718    5691.2664   -8080491.5    53049.087   -8027442.4    728791.48    1.1339599    71.426236    71.426236    142.85247 
     500    72620    282.39905    2652.4204     -8074853     61129.07     -8013724    739787.58    1.1171049    71.783674    71.783674    143.56735 
     600    72620    301.92222     865.8731   -8069462.3    65355.124   -8004107.2    748711.29    1.1037904    72.071152    72.071152     144.1423 
     700    72620    302.69257    -277.6566   -8066783.8    65521.877   -8001261.9    754380.34    1.0954956    72.252596    72.252596    144.50519 
     800    72620    297.44017   -39.853151   -8066719.6    64384.925   -8002334.6    761387.85    1.0854131    72.475627    72.475627    144.95125 
     900    72620    301.98511    1330.9096   -8066276.2    65368.737   -8000907.5    766011.53    1.0788615    72.622039    72.622039    145.24408 
    1000    72620    300.58859    1058.1674   -8066928.7    65066.443   -8001862.2    769535.38    1.0739211    72.733229    72.733229    145.46646 
    1100    72620    299.02335   -270.50735   -8067746.5    64727.625   -8003018.9    772427.33    1.0699004    72.824226    72.824226    145.64845 
    1200    72620    302.60818   -455.61302   -8067980.8    65503.609   -8002477.2    777223.35    1.0632984    72.974638    72.974638    145.94928 
    1300    72620    300.05041    169.73853   -8068895.8    64949.945   -8003945.8    782340.45    1.0563436    73.134438    73.134438    146.26888 
    1400    72620    300.35162      1660.38   -8069437.4    65015.147   -8004422.2    789830.59     1.046326    73.367094    73.367094    146.73419 
    1500    72620    300.88821    1842.5963   -8068975.7    65131.299   -8003844.4    797270.08    1.0365626    73.596725    73.596725    147.19345 
    1600    72620    298.23771     688.2552   -8069072.1    64557.563   -8004514.6    804810.95    1.0268502    73.828032    73.828032    147.65606 
    1700    72620    299.82218    83.212081   -8068552.7    64900.543   -8003652.1    811792.41    1.0180193    74.040896    74.040896    148.08179 
    1800    72620    300.36638    1019.3615   -8067631.5    65018.342   -8002613.2    819235.97    1.0087696    74.266508    74.266508    148.53302 
    1900    72620    298.55744    861.41391   -8067265.2    64626.773   -8002638.4    826873.89   0.99945147    74.496596    74.496596    148.99319 
    2000    72620    302.45959     1849.436   -8067103.2    65471.445   -8001631.8    833682.82   0.99128866    74.700519    74.700519    149.40104 
    2100    72620    298.67149    903.24946   -8066975.1    64651.461   -8002323.7     840173.5   0.98363055     74.89388     74.89388    149.78776 
    2200    72620    300.99526    185.52905   -8067194.1     65154.47   -8002039.7    847296.07   0.97536192    75.104922    75.104922    150.20984 
    2300    72620    300.89913    126.98402   -8066373.5    65133.662   -8001239.9    853883.81   0.96783697    75.299067    75.299067    150.59813 
    2400    72620    300.76215   -284.18999   -8066864.1    65104.012   -8001760.1    858232.18   0.96293327     75.42667     75.42667    150.85334 
    2500    72620    300.19555    835.82041   -8067485.7    64981.363   -8002504.4    861867.49   0.95887167    75.533018    75.533018    151.06604 
    2600    72620    299.79461   -668.69397   -8067078.4    64894.574   -8002183.9    863227.99   0.95736043    75.572741    75.572741    151.14548 
    2700    72620    300.27673   -291.43253   -8067086.7    64998.935   -8002087.7    862223.91    0.9584753    75.543428    75.543428    151.08686 
    2800    72620    298.68121    -472.5561   -8067329.1    64653.563   -8002675.5     860630.3   0.96025009    75.496858    75.496858    150.99372 
    2900    72620    300.88222    345.46168   -8067446.7    65130.002   -8002316.7    859003.62    0.9620685    75.449262    75.449262    150.89852 
    3000    72620    303.35227    757.17943   -8067814.6    65664.676   -8002149.9    858409.68   0.96273416    75.431869    75.431869    150.86374 
    3100    72620     298.7376   -350.97972   -8067757.8    64665.771     -8003092    856117.16   0.96531218    75.364659    75.364659    150.72932 
    3200    72620    300.63665   -650.79462   -8068154.2    65076.844   -8003077.4    854120.01   0.96756933    75.306009    75.306009    150.61202 
    3300    72620    298.97435   -893.87394     -8067627    64717.018     -8002910     852105.8   0.96985647    75.246766    75.246766    150.49353 
    3400    72620    302.40336   -272.04258   -8068390.9    65459.274   -8002931.6    850727.45   0.97142783    75.206172    75.206172    150.41234 
    3500    72620    299.52567    124.62845   -8068777.6    64836.357   -8003941.3    848356.28   0.97414299    75.136235    75.136235    150.27247 
    3600    72620    298.52284   -784.06864   -8068731.6    64619.282   -8004112.3    846080.05   0.97676375    75.068975    75.068975    150.13795 
    3700    72620    299.93173    104.99734   -8068504.2    64924.256   -8003579.9    844944.04   0.97807699    75.035362    75.035362    150.07072 
    3800    72620    300.93053   -312.69519   -8068934.4    65140.458   -8003793.9    844718.31   0.97833836     75.02868     75.02868    150.05736 
    3900    72620    299.70664    171.28836   -8069437.1    64875.533   -8004561.6    844867.41    0.9781657    75.033094    75.033094    150.06619 
    4000    72620     299.4463    252.37399   -8069412.3    64819.177   -8004593.2    843591.59   0.97964504    74.995306    74.995306    149.99061 
    4100    72620    300.94868   -816.06978   -8069261.7    65144.388   -8004117.3    843713.46   0.97950355    74.998917    74.998917    149.99783 
    4200    72620    299.21189    571.34025   -8069330.3    64768.437   -8004561.9    842910.96   0.98043609    74.975131    74.975131    149.95026 
    4300    72620    299.10092    408.67784   -8069785.7    64744.416   -8005041.3    842869.69   0.98048409    74.973908    74.973908    149.94782 
    4400    72620    300.68045    392.89827   -8070214.8    65086.325   -8005128.4    842231.82   0.98122667     74.95499     74.95499    149.90998 
    4500    72620    300.40839    15.501291   -8069417.6    65027.434   -8004390.2    841559.64   0.98201041    74.935044    74.935044    149.87009 
    4600    72620    299.81205    750.59077   -8069494.8    64898.349   -8004596.5    842632.82   0.98075971    74.966884    74.966884    149.93377 
    4700    72620    296.76797      769.818     -8069695    64239.417   -8005455.6    843477.22   0.97977788    74.991917    74.991917    149.98383 
    4800    72620    303.42867   -114.96339   -8069774.1    65681.214   -8004092.9    842702.73   0.98067835    74.968957    74.968957    149.93791 
    4900    72620    299.58484    950.96172   -8070185.6    64849.166   -8005336.4    840338.31   0.98343764    74.898776    74.898776    149.79755 
    5000    72620    299.36456    -776.8204   -8070249.6    64801.484   -8005448.2    838135.41   0.98602245    74.833271    74.833271    149.66654 
    5100    72620    301.00523    417.96351     -8070035     65156.63   -8004878.4    834741.58   0.99003134    74.732128    74.732128    149.46426 
    5200    72620    300.17726   -183.80304     -8070949    64977.405   -8005971.6     833025.1   0.99207133    74.680869    74.680869    149.36174 
    5300    72620    300.42591    248.36655   -8071078.5    65031.227   -8006047.3    831491.42   0.99390121    74.635009    74.635009    149.27002 
    5400    72620     302.0211   -743.88623   -8070880.7    65376.529   -8005504.2    830769.18   0.99476527    74.613394    74.613394    149.22679 
    5500    72620     300.2808    1172.8851   -8070784.6    64999.816   -8005784.8    829789.03   0.99594028    74.584039    74.584039    149.16808 
    5600    72620    301.35338    236.67324     -8070816    65231.991     -8005584    829025.53   0.99685751    74.561157    74.561157    149.12231 
    5700    72620    297.73424   -449.32497   -8070957.4    64448.578   -8006508.8    827677.13   0.99848153     74.52071     74.52071    149.04142 
    5800    72620     300.0254   -1093.0784   -8071103.3    64944.531   -8006158.8    826228.59    1.0002321    74.477211    74.477211    148.95442 
    5900    72620    300.57566    179.58265   -8071063.6    65063.643   -8005999.9    825294.59     1.001364    74.449137    74.449137    148.89827 
    6000    72620    300.10128   -127.84549     -8071202    64960.957   -8006241.1    823912.68    1.0030436     74.40756     74.40756    148.81512 
    6100    72620     299.9589   -459.51183   -8071315.5    64930.137   -8006385.4    822847.54     1.004342    74.375482    74.375482    148.75096 
    6200    72620    298.73522    409.96878   -8071607.7    64665.254   -8006942.5    823004.22    1.0041508    74.380202    74.380202     148.7604 
    6300    72620    300.25328    1003.8607   -8071150.8     64993.86     -8006157    822178.58    1.0051591    74.355321    74.355321    148.71064 
    6400    72620    298.88699    120.36619   -8071100.2    64698.107   -8006402.1    822265.85    1.0050525    74.357952    74.357952     148.7159 
    6500    72620    298.65893   -368.28698   -8071025.6     64648.74   -8006376.9    820419.81     1.007314    74.302264    74.302264    148.60453 
    6600    72620    299.68708   -231.83588   -8071497.5    64871.298   -8006626.2    818649.96    1.0094917    74.248796    74.248796    148.49759 
    6700    72620    299.55201   -341.63651   -8072176.6     64842.06   -8007334.5    817554.58    1.0108442    74.215666    74.215666    148.43133 
    6800    72620     299.1203   -1529.6307   -8072178.2    64748.611   -8007429.5    815749.94    1.0130805    74.161018    74.161018    148.32204 
    6900    72620    301.23208   -161.84476   -8072195.9    65205.734   -8006990.2    814345.62    1.0148275    74.118438    74.118438    148.23688 
    7000    72620    298.22872    615.64926   -8072181.2    64555.615   -8007625.6    813566.96    1.0157988    74.094807    74.094807    148.18961 
    7100    72620    298.85652   -577.21447   -8071889.7    64691.512   -8007198.2    812579.34    1.0170334    74.064812    74.064812    148.12962 
    7200    72620    302.36541   -181.35094   -8071312.2    65451.059   -8005861.1    812359.43    1.0173087     74.05813     74.05813    148.11626 
    7300    72620    299.84648   -506.04908     -8072159    64905.802   -8007253.2    810481.37     1.019666    74.001016    74.001016    148.00203 
    7400    72620    296.57242   -5.7917705   -8072359.3    64197.088   -8008162.3       808780     1.021811    73.949198    73.949198     147.8984 
    7500    72620    302.90292     496.8403   -8072008.8     65567.41   -8006441.4    807469.43    1.0234695    73.909233    73.909233    147.81847 
    7600    72620    300.56108   -1038.2073   -8072337.9    65060.487   -8007277.4    805608.81    1.0258333    73.852421    73.852421    147.70484 
    7700    72620    298.85172    474.91238   -8072838.3    64690.472   -8008147.8    803948.76    1.0279515    73.801659    73.801659    147.60332 
    7800    72620    302.42023    234.67781   -8072702.3    65462.924   -8007239.4    802658.83    1.0296035    73.762166    73.762166    147.52433 
    7900    72620    300.09726    396.65848   -8072400.9    64960.088   -8007440.8     801194.5    1.0314853    73.717283    73.717283    147.43457 
    8000    72620    301.41661   -523.29761   -8073138.2    65245.679   -8007892.5    799894.23     1.033162    73.677383    73.677383    147.35477 
    8100    72620    300.17432   -824.66228   -8072822.7    64976.767     -8007846    799268.88    1.0339703    73.658178    73.658178    147.31636 
    8200    72620    299.85042   -143.02025   -8072765.1    64906.655   -8007858.5    798842.85    1.0345218    73.645088    73.645088    147.29018 
    8300    72620    300.63344   -820.23023   -8072874.2    65076.151     -8007798    798381.12    1.0351201    73.630896    73.630896    147.26179 
    8400    72620    298.87522   -571.47948   -8073529.2    64695.561   -8008833.6    796898.06    1.0370465    73.585276    73.585276    147.17055 
    8500    72620    300.40531   -112.33159   -8073305.8    65026.769   -8008279.1    795649.92    1.0386733    73.546839    73.546839    147.09368 
    8600    72620     300.1644   -638.57631   -8073046.7     64974.62   -8008072.1     794259.5    1.0404916    73.503972    73.503972    147.00794 
    8700    72620    299.05058   -393.16164   -8073410.8    64733.518   -8008677.3    793241.66    1.0418267     73.47256     73.47256    146.94512 
    8800    72620    301.58041    931.01309   -8073310.5    65281.135   -8008029.3    792247.91    1.0431335    73.441866    73.441866    146.88373 
    8900    72620    300.35036   -373.51618   -8073389.8    65014.874   -8008374.9    791886.32    1.0436098    73.430691    73.430691    146.86138 
    9000    72620    298.50011   -444.02507     -8073653    64614.363   -8009038.7    790517.76    1.0454165    73.388365    73.388365    146.77673 
    9100    72620    301.02766   -46.068767   -8073609.2    65161.484   -8008447.7    789860.12    1.0462869    73.368009    73.368009    146.73602 
    9200    72620    300.64612   -6.8151406   -8073759.2    65078.895   -8008680.3    789887.72    1.0462504    73.368863    73.368863    146.73773 
    9300    72620    300.16927   -1000.8791   -8074018.2    64975.675   -8009042.6    790158.27    1.0458921    73.377239    73.377239    146.75448 
    9400    72620    300.23051   -237.28102   -8073658.4     64988.93   -8008669.5    788207.25     1.048481    73.316796    73.316796    146.63359 
    9500    72620    300.42451    552.90796   -8073548.6    65030.925   -8008517.7    786614.94    1.0506034    73.267392    73.267392    146.53478 
    9600    72620    300.75351    108.71973   -8074191.8    65102.141   -8009089.7    785699.35    1.0518277    73.238954    73.238954    146.47791 
    9700    72620    299.95155    1074.2616   -8074096.5    64928.545   -8009167.9    784948.24    1.0528342    73.215608    73.215608    146.43122 
    9800    72620    299.84028   -1153.9239   -8073938.8    64904.459   -8009034.3    784813.47     1.053015    73.211418    73.211418    146.42284 
    9900    72620    299.91242   -277.79262   -8074202.9    64920.075   -8009282.8    783680.47    1.0545373     73.17617     73.17617    146.35234 
   10000    72620    300.47255   -918.34155   -8073970.5    65041.323   -8008929.2     783581.3    1.0546708    73.173083    73.173083    146.34617 
   10100    72620    300.07114    312.47467   -8073872.2    64954.433   -8008917.8    782698.15    1.0558608    73.145583    73.145583    146.29117 
   10200    72620    300.17709    464.61878   -8074361.6    64977.368   -8009384.2    781281.27    1.0577757    73.101419    73.101419    146.20284 
   10300    72620    301.50539    359.06794   -8074205.6    65264.895   -8008940.7    780388.36     1.058986    73.073559    73.073559    146.14712 
   10400    72620    300.06886    852.07858   -8073931.4    64953.939   -8008977.5    779193.52    1.0606098    73.036247    73.036247    146.07249 
   10500    72620     301.0198    721.38787   -8074320.4    65159.783   -8009160.6    778754.28    1.0612081     73.02252     73.02252    146.04504 
   10600    72620    299.30148   -659.44305   -8074269.5    64787.829   -8009481.6    778762.81    1.0611964    73.022787    73.022787    146.04557 
   10700    72620     300.0896     434.7751     -8074290    64958.428   -8009331.6    777125.63    1.0634321    72.971579    72.971579    145.94316 
   10800    72620     298.8558    563.00663     -8074410    64691.356   -8009718.7    776975.45    1.0636376    72.966878    72.966878    145.93376 
   10900    72620    300.74861   -214.19966   -8074612.1    65101.079     -8009511    775967.77    1.0650189     72.93532     72.93532    145.87064 
   11000    72620      300.684    1759.2659   -8074548.2    65087.095   -8009461.2    774673.06    1.0667988    72.894733    72.894733    145.78947 
   11100    72620    299.53092   -705.79652   -8074610.6    64837.495   -8009773.1     772855.3     1.069308    72.837673    72.837673    145.67535 
   11200    72620    299.33479   -379.10388   -8074663.5     64795.04   -8009868.4    772516.88    1.0697764     72.82704     72.82704    145.65408 
   11300    72620    300.02416    744.09176     -8074441    64944.263   -8009496.7    772201.48    1.0702133    72.817128    72.817128    145.63426 
   11400    72620    299.86041   -433.84404   -8074781.2    64908.817   -8009872.4    772355.04    1.0700006    72.821954    72.821954    145.64391 
   11500    72620    300.05601   -774.26103   -8075072.8    64951.158   -8010121.7    772348.38    1.0700098    72.821745    72.821745    145.64349 
   11600    72620    300.83389    596.03159     -8075044     65119.54   -8009924.5    771830.64    1.0707275    72.805469    72.805469    145.61094 
   11700    72620    299.55585    1926.9496   -8074981.8    64842.891   -8010138.9    771893.46    1.0706404    72.807445    72.807445    145.61489 
   11800    72620    299.34973    448.47778   -8074808.6    64798.274   -8010010.4    771534.15     1.071139    72.796146    72.796146    145.59229 
   11900    72620    299.84487    1218.2485   -8074512.5    64905.454   -8009607.1    770774.58    1.0721946    72.772249    72.772249     145.5445 
   12000    72620     299.4552   -1117.1698     -8074640    64821.105   -8009818.9    770120.83    1.0731048    72.751668    72.751668    145.50334 
   12100    72620    299.52314    678.33825   -8074928.4    64835.811   -8010092.6    770142.01    1.0730752    72.752336    72.752336    145.50467 
   12200    72620    299.10526   -437.72556   -8075115.5    64745.356   -8010370.2    770444.45     1.072654    72.761858    72.761858    145.52372 
   12300    72620    300.36386    889.70992   -8074952.9    65017.795   -8009935.1    768535.57    1.0753182    72.701716    72.701716    145.40343 
   12400    72620    301.87793   -789.74026   -8075030.4    65345.536   -8009684.8       767780    1.0763765    72.677883    72.677883    145.35577 
   12500    72620    298.70121   -774.37148   -8074928.8    64657.893   -8010270.9    766904.36    1.0776055    72.650243    72.650243    145.30049 
   12600    72620    301.06166    582.95163   -8075577.5    65168.844   -8010408.7    766310.26    1.0784409    72.631478    72.631478    145.26296 
   12700    72620    299.86772     368.5123   -8075521.6      64910.4   -8010611.2    765573.67    1.0794785    72.608199    72.608199     145.2164 
   12800    72620    299.30914    35.918948   -8075305.9    64789.487   -8010516.4    765703.07    1.0792961    72.612289    72.612289    145.22458 
   12900    72620    300.55971   -675.61551   -8074885.9    65060.191   -8009825.8    765429.88    1.0796813    72.603653    72.603653    145.20731 
   13000    72620    299.27924    1408.6754   -8075387.9    64783.015   -8010604.8     764768.5     1.080615    72.582736    72.582736    145.16547 
   13100    72620    299.57475    -287.9139   -8075611.5    64846.983   -8010764.5    764777.99    1.0806016    72.583036    72.583036    145.16607 
   13200    72620    300.39532   -518.35562   -8075334.3    65024.605   -8010309.7    764132.35    1.0815146    72.562605    72.562605    145.12521 
   13300    72620    299.23353    540.57604   -8075648.9     64773.12   -8010875.8    763122.21    1.0829462    72.530616    72.530616    145.06123 
   13400    72620    300.46179    -1100.789   -8075735.5    65038.994   -8010696.5    762675.67    1.0835803    72.516466    72.516466    145.03293 
   13500    72620    300.67225    187.91763   -8075196.2    65084.551   -8010111.6    761803.22    1.0848213    72.488804    72.488804    144.97761 
   13600    72620    299.32229   -870.11627   -8075321.4    64792.335   -8010529.1    761565.61    1.0851597    72.481267    72.481267    144.96253 
   13700    72620     300.6273    328.81527     -8075791    65074.821   -8010716.2     760410.8    1.0868077    72.444613    72.444613    144.88923 
   13800    72620    297.98354   -284.66483   -8075501.8    64502.543   -8010999.2    759132.72    1.0886375    72.404002    72.404002      144.808 
   13900    72620    300.85303   -500.46613   -8075683.5    65123.684   -8010559.8    758373.09    1.0897279    72.379843    72.379843    144.75969 
   14000    72620     300.2339    318.72612   -8075799.3    64989.664   -8010809.6    758940.69    1.0889129    72.397896    72.397896    144.79579 
   14100    72620    299.35489     183.0471   -8076264.1    64799.391   -8011464.7    759738.38    1.0877696    72.423252    72.423252     144.8465 
   14200    72620    300.22049    373.35655   -8075401.1    64986.762   -8010414.4    758971.28     1.088869    72.398869    72.398869    144.79774 
   14300    72620    299.77352    725.44787   -8075535.1    64890.009   -8010645.1    758488.87    1.0895616    72.383527    72.383527    144.76705 
   14400    72620    298.22305    391.37485   -8075788.9    64554.388   -8011234.5    758934.54    1.0889217    72.397701    72.397701     144.7954 
   14500    72620    301.21495    -165.6513   -8075402.7    65202.025   -8010200.6     758597.2     1.089406    72.386973    72.386973    144.77395 
   14600    72620    298.91415   -923.28017   -8075382.4    64703.987   -8010678.5    757897.09    1.0904123    72.364697    72.364697    144.72939 
   14700    72620    299.12296   -58.304726   -8075794.7    64749.186   -8011045.5    757396.77    1.0911326     72.34877     72.34877    144.69754 
   14800    72620    301.80014    871.90181   -8075922.4    65328.698   -8010593.7    757128.97    1.0915186    72.340242    72.340242    144.68048 
   14900    72620    299.94512    1111.9652   -8076154.9    64927.153   -8011227.7    756204.72    1.0928526    72.310794    72.310794    144.62159 
   15000    72620    300.27288   -384.46461   -8075726.4    64998.102   -8010728.3    755973.59    1.0931868    72.303426    72.303426    144.60685 
   15100    72620    301.10403    -693.1392   -8075918.4    65178.016   -8010740.4    756753.65    1.0920599    72.328287    72.328287    144.65657 
   15200    72620    299.29619   -755.39509     -8076309    64786.684   -8011522.3     755949.5    1.0932216    72.302658    72.302658    144.60532 
   15300    72620    300.98362   -839.50154   -8076503.6    65151.951   -8011351.6    755319.35    1.0941337    72.282562    72.282562    144.56512 
   15400    72620    301.79596   -91.744616   -8076057.2    65327.793   -8010729.4       755273    1.0942008    72.281084    72.281084    144.56217 
   15500    72620    300.51452    50.506364   -8076342.8    65050.408   -8011292.4    754197.51    1.0957611    72.246758    72.246758    144.49352 
   15600    72620    298.85263   -236.86859   -8076141.6     64690.67   -8011450.9    753549.92    1.0967028    72.226074    72.226074    144.45215 
   15700    72620    300.31099   -362.00111   -8075622.4    65006.352     -8010616    753196.34    1.0972176    72.214776    72.214776    144.42955 
   15800    72620    300.02284   -383.36956     -8075980    64943.977     -8011036    753259.87    1.0971251    72.216806    72.216806    144.43361 
   15900    72620    299.02026    53.624364   -8076541.8    64726.956   -8011814.9    752545.26    1.0981669    72.193962    72.193962    144.38792 
   16000    72620    300.90607    73.443188   -8076537.1    65135.165   -8011401.9    751181.22    1.1001611    72.150317    72.150317    144.30063 
   16100    72620    300.20594   -146.19631     -8076528    64983.612   -8011544.4    750336.91     1.101399    72.123275    72.123275    144.24655 
   16200    72620    299.02785    267.62859   -8076524.9    64728.598   -8011796.3    750517.28    1.1011343    72.129054    72.129054    144.25811 
   16300    72620    300.55597   -837.04823   -8076199.7    65059.382   -8011140.3    750471.05    1.1012021    72.127573    72.127573    144.25515 
   16400    72620    300.17209    396.41108   -8076364.1    64976.286   -8011387.8    749431.51    1.1027296    72.094254    72.094254    144.18851 
   16500    72620     298.7905   -130.37728   -8076922.1    64677.221   -8012244.8     750292.7    1.1014639    72.121858    72.121858    144.24372 
   16600    72620    300.93122   -901.90856   -8076536.8    65140.609   -8011396.2    749311.22    1.1029066    72.090396    72.090396    144.18079 
   16700    72620    300.56492    1046.5905   -8076455.6    65061.318   -8011394.3    748759.25    1.1037197    72.072691    72.072691    144.14538 
   16800    72620    299.45314   -1186.7592   -8076768.9    64820.658   -8011948.2    748610.54    1.1039389    72.067919    72.067919    144.13584 
   16900    72620    300.17014    518.18349   -8076382.2    64975.862   -8011406.4    747783.05    1.1051605    72.041355    72.041355    144.08271 
   17000    72620    301.13727   -750.58933   -8076384.3    65185.212   -8011199.1    748279.37    1.1044275     72.05729     72.05729    144.11458 
   17100    72620    300.49653    15.851949   -8077080.6    65046.514   -8012034.1    748263.01    1.1044517    72.056765    72.056765    144.11353 
   17200    72620    301.02189    275.61472   -8077147.5    65160.234   -8011987.3     748117.2    1.1046669    72.052084    72.052084    144.10417 
   17300    72620    299.55903   -682.11322   -8077058.5    64843.579   -8012214.9    747934.86    1.1049362     72.04623     72.04623    144.09246 
   17400    72620    299.73141    1043.3661   -8076623.6    64880.894   -8011742.7    747440.28    1.1056674    72.030346    72.030346    144.06069 
   17500    72620    299.65728   -1961.5612   -8076488.6    64864.848   -8011623.7    747052.16    1.1062418    72.017876    72.017876    144.03575 
   17600    72620    299.26491   -1066.4007   -8076925.2    64779.913   -8012145.3    746990.62    1.1063329    72.015899    72.015899     144.0318 
   17700    72620    299.73869    93.806094   -8076642.5    64882.469     -8011760    747432.95    1.1056782     72.03011     72.03011    144.06022 
   17800    72620    299.76403    394.78553   -8076312.9    64887.954   -8011424.9    748912.08    1.1034944    72.077594    72.077594    144.15519 
   17900    72620    301.35274   -139.88397   -8076591.1    65231.852   -8011359.2    748360.56    1.1043077    72.059896    72.059896    144.11979 
   18000    72620    298.89921   -451.68862   -8076709.6    64700.754   -8012008.9    748016.78    1.1048152     72.04886     72.04886    144.09772 
   18100    72620    300.82408    907.64779     -8076774    65117.416   -8011656.6    748397.97    1.1042525    72.061097    72.061097    144.12219 
   18200    72620    299.80726    570.43787     -8076583    64897.312   -8011685.7    748328.19    1.1043555    72.058857    72.058857    144.11771 
   18300    72620    300.54061    30.287621   -8076592.3    65056.055   -8011536.3       747977     1.104874    72.047583    72.047583    144.09517 
   18400    72620    300.00633    134.53813   -8076986.3    64940.405   -8012045.9    746624.73    1.1068751    72.004138    72.004138    144.00828 
   18500    72620    300.77946    693.24898   -8077395.3    65107.758   -8012287.6    745188.57    1.1090083    71.957941    71.957941    143.91588 
   18600    72620    299.19729   -32.048624   -8077016.4    64765.275   -8012251.1     744203.3    1.1104766    71.926213    71.926213    143.85243 
   18700    72620    301.83742   -177.17164   -8077212.1    65336.768   -8011875.3    743603.44    1.1113724    71.906883    71.906883    143.81377 
   18800    72620    300.37826   -141.43024   -8077428.9    65020.914     -8012408     743075.8    1.1121615    71.889871    71.889871    143.77974 
   18900    72620    301.40598   -1005.6127   -8077368.5    65243.377   -8012125.1    743308.04    1.1118141     71.89736     71.89736    143.79472 
   19000    72620    301.35886   -1300.7973   -8076858.3    65233.177   -8011625.2    742832.42    1.1125259    71.882022    71.882022    143.76404 
   19100    72620     300.4796    973.18244   -8077145.1     65042.85   -8012102.2    743287.95    1.1118441    71.896712    71.896712    143.79342 
   19200    72620    300.51904    1020.2157   -8077087.8    65051.387   -8012036.4    742288.67    1.1133409    71.864479    71.864479    143.72896 
   19300    72620    302.30225    -617.4592   -8076967.2    65437.386   -8011529.9    741791.31    1.1140874    71.848424    71.848424    143.69685 
   19400    72620    299.28706    66.422695   -8077104.1    64784.709   -8012319.3    741411.88    1.1146575    71.836172    71.836172    143.67234 
   19500    72620    298.91916   -254.38198   -8077364.9    64705.072   -8012659.8    740431.98    1.1161327     71.80451     71.80451    143.60902 
   19600    72620    298.94949    1147.8885   -8077263.4    64711.637   -8012551.8     741056.2    1.1151925    71.824683    71.824683    143.64937 
   19700    72620     300.6554    834.66628   -8077080.7    65080.904   -8011999.7    740789.94    1.1155933     71.81608     71.81608    143.63216 
   19800    72620    298.71388    347.33068   -8077317.1    64660.636   -8012656.4    740680.42    1.1157583     71.81254     71.81254    143.62508 
   19900    72620    299.99118   -33.742198   -8077414.7    64937.125   -8012477.6    740677.39    1.1157629    71.812442    71.812442    143.62488 
   20000    72620    299.39489    988.31779   -8076827.5     64808.05   -8012019.5    740048.86    1.1167105    71.792123    71.792123    143.58425 
   20100    72620    298.93355   -690.26168   -8076977.1    64708.186   -8012268.9    739609.63    1.1173737    71.777917    71.777917    143.55583 
   20200    72620    299.54929    1025.5625   -8077285.2    64841.472   -8012443.7    738822.67    1.1185638    71.752451    71.752451     143.5049 
   20300    72620    300.46886    315.91234   -8077298.6    65040.525   -8012258.1    738759.27    1.1186598    71.750398    71.750398     143.5008 
   20400    72620    301.58437    139.10143     -8076951    65281.992     -8011669    739545.04    1.1174712    71.775828    71.775828    143.55166 
   20500    72620    300.15528    84.786196   -8077235.9    64972.645   -8012263.3    740563.15     1.115935     71.80875     71.80875     143.6175 
   20600    72620    300.25693   -107.86262   -8077528.8    64994.649   -8012534.1     741448.5    1.1146025    71.837355    71.837355    143.67471 
   20700    72620    301.60552    138.91642   -8077251.2     65286.57   -8011964.6    740468.17    1.1160781     71.80568     71.80568    143.61136 
   20800    72620    299.29571   -969.93361   -8077071.8     64786.58   -8012285.3    740141.44    1.1165708    71.795117    71.795117    143.59023 
   20900    72620    299.35568    434.61854   -8077251.1    64799.562   -8012451.6    739664.05    1.1172915    71.779678    71.779678    143.55936 
   21000    72620    300.38916   -1729.2502   -8077704.2    65023.273   -8012680.9    739780.08    1.1171162    71.783431    71.783431    143.56686 
   21100    72620    299.50633   -515.08993   -8077689.6    64832.172   -8012857.4    739503.17    1.1175345    71.774473    71.774473    143.54895 
   21200    72620    300.36289   -219.70657     -8077372    65017.586   -8012354.4    738714.56    1.1187275    71.748951    71.748951     143.4979 
   21300    72620      300.748   -2226.2385   -8077175.2    65100.949   -8012074.3    738904.69    1.1184397    71.755106    71.755106    143.51021 
   21400    72620    299.30255    136.42224   -8077590.8    64788.061   -8012802.7    738114.94    1.1196364    71.729532    71.729532    143.45906 
   21500    72620    301.63801   -669.40034   -8077830.7    65293.604   -8012537.1    738189.48    1.1195233    71.731947    71.731947    143.46389 
   21600    72620    301.11159    1104.6714   -8077344.6    65179.652   -8012164.9    738722.49    1.1187155    71.749208    71.749208    143.49842 
   21700    72620    298.85834   -401.65513   -8077288.1    64691.905   -8012596.2    740038.66    1.1167259    71.791794    71.791794    143.58359 
   21800    72620    299.50924    67.662615   -8077064.5    64832.803   -8012231.7    739407.18    1.1176796    71.771368    71.771368    143.54274 
   21900    72620    301.28864   -616.44856   -8077270.3    65217.978   -8012052.3    739592.18       1.1174    71.777353    71.777353    143.55471 
   22000    72620    299.60651   -918.60156   -8077462.3    64853.858   -8012608.4    739810.69      1.11707    71.784421    71.784421    143.56884 
   22100    72620    299.58828    830.08077   -8077083.2    64849.911   -8012233.2    737932.85    1.1199126    71.723634    71.723634    143.44727 
   22200    72620      301.187    -166.2416     -8077282    65195.975     -8012086    738255.07    1.1194238    71.734072    71.734072    143.46814 
   22300    72620    299.82238    47.983849   -8077614.7    64900.586   -8012714.1    738126.46    1.1196189    71.729906    71.729906    143.45981 
   22400    72620    300.65122   -982.54734   -8077230.8    65079.999   -8012150.8    738101.53    1.1196567    71.729098    71.729098     143.4582 
   22500    72620    300.37931   -273.99644   -8077295.6     65021.14   -8012274.4    738225.95     1.119468    71.733128    71.733128    143.46626 
   22600    72620    299.48295     999.6874   -8077536.9    64827.111   -8012709.8    738386.54    1.1192245    71.738329    71.738329    143.47666 
   22700    72620    299.21599    759.62564   -8077681.8    64769.324   -8012912.5    738389.51      1.11922    71.738426    71.738426    143.47685 
   22800    72620    301.46547    1174.4977   -8077369.2    65256.254     -8012113    737336.12     1.120819    71.704295    71.704295    143.40859 
   22900    72620     299.0828   -1019.4887   -8077511.7    64740.494   -8012771.2    737210.32    1.1210102    71.700217    71.700217    143.40043 
   23000    72620    300.68346   -863.32368   -8077669.9    65086.978   -8012582.9    737211.37    1.1210086    71.700251    71.700251     143.4005 
   23100    72620    301.84246   -824.91609   -8077439.8    65337.858   -8012101.9     736169.2    1.1225956    71.666448    71.666448     143.3329 
   23200    72620    299.79783    31.205212   -8077720.5    64895.271   -8012825.2    735566.13     1.123516    71.646873    71.646873    143.29375 
   23300    72620     301.3494   -673.21939   -8077659.2    65231.129   -8012428.1    735539.91    1.1235561    71.646022    71.646022    143.29204 
   23400    72620    298.88672    407.42246   -8077573.8     64698.05   -8012875.7     735406.1    1.1237605    71.641677    71.641677    143.28335 
   23500    72620    301.24925   -1110.9141   -8077997.7     65209.45   -8012788.3    735697.49    1.1233154    71.651138    71.651138    143.30228 
   23600    72620    299.57887    374.24117   -8077809.5    64847.875   -8012961.6    735514.33    1.1235951    71.645192    71.645192    143.29038 
   23700    72620    300.86979    499.54188   -8077541.6    65127.312   -8012414.3    735401.86     1.123767    71.641539    71.641539    143.28308 
   23800    72620    299.08084    444.84606     -8077463    64740.068     -8012723    735709.78    1.1232966    71.651537    71.651537    143.30307 
   23900    72620    298.63437    3.3733152   -8078069.8    64643.424   -8013426.4     735863.7    1.1230617    71.656533    71.656533    143.31307 
   24000    72620    300.45131     510.8278   -8077894.8    65036.727     -8012858    734449.91    1.1252235    71.610614    71.610614    143.22123 
   24100    72620    301.01195    995.87743   -8078122.9    65158.084   -8012964.8    733784.31    1.1262442    71.588975    71.588975    143.17795 
   24200    72620    299.67063   -34.173078   -8077747.4    64867.737   -8012879.7    733623.48    1.1264911    71.583744    71.583744    143.16749 
   24300    72620      300.731    149.73372   -8077284.3    65097.269     -8012187    733342.26    1.1269231    71.574596    71.574596    143.14919 
   24400    72620    300.49483   -68.759487   -8077433.9    65046.146   -8012387.8    733474.17    1.1267204    71.578887    71.578887    143.15777 
   24500    72620    299.17318    -776.1444   -8077629.7    64760.056   -8012869.7    734443.19    1.1252338    71.610395    71.610395    143.22079 
   24600    72620    299.76705   -688.35065   -8077688.3    64888.608   -8012799.7    733955.93    1.1259809    71.594555    71.594555    143.18911 
   24700    72620    301.20639   -480.78668   -8077527.8    65200.172   -8012327.6    734604.66    1.1249865    71.615643    71.615643    143.23129 
   24800    72620    300.13203    993.58233   -8077721.5    64967.614   -8012753.9    734092.82    1.1257709    71.599006    71.599006    143.19801 
   24900    72620    300.03262   -849.40697   -8078082.7    64946.094   -8013136.6    734596.43    1.1249991    71.615375    71.615375    143.23075 
   25000    72620    297.68356    1489.0891   -8078187.9     64437.61   -8013750.3       734088    1.1257783    71.598849    71.598849     143.1977 
   25100    72620    300.18201    504.37449   -8077904.8    64978.432   -8012926.3    732893.23    1.1276135    71.559985    71.559985    143.11997 
   25200    72620    299.46965    753.88804     -8077599    64824.231   -8012774.8    733935.98    1.1260114    71.593907    71.593907    143.18781 
   25300    72620    302.46114    83.335369   -8077989.6    65471.781   -8012517.8    734141.04    1.1256969    71.600574    71.600574    143.20115 
   25400    72620    299.62004   -2101.3773   -8078027.2    64856.787   -8013170.4    733816.38     1.126195    71.590018    71.590018    143.18004 
   25500    72620    301.58277   -25.003436     -8077963    65281.644   -8012681.4    733586.58    1.1265478    71.582544    71.582544    143.16509 
   25600    72620    300.53134    1063.0208   -8077815.1     65054.05     -8012761    733292.66    1.1269993    71.572983    71.572983    143.14597 
   25700    72620    299.50241    27.719752   -8077904.8    64831.324   -8013073.5    733515.19    1.1266574    71.580222    71.580222    143.16044 
   25800    72620    299.73137    603.34237   -8077835.1    64880.884   -8012954.2    733531.58    1.1266322    71.580755    71.580755    143.16151 
   25900    72620    300.30275   -287.52634   -8077710.6    65004.568     -8012706    732765.95    1.1278094    71.555842    71.555842    143.11168 
   26000    72620    298.84313    496.31751   -8077756.4    64688.613   -8013067.8    732561.09    1.1281248    71.549173    71.549173    143.09835 
   26100    72620    301.14329    195.15636   -8077612.9    65186.514   -8012426.4    733068.94    1.1273433    71.565703    71.565703    143.13141 
   26200    72620    300.62585    240.75434   -8077785.3    65074.507   -8012710.8    732316.14    1.1285021    71.541197    71.541197    143.08239 
   26300    72620    299.13716    541.55352     -8078220     64752.26   -8013467.7    731354.31    1.1299863    71.509862    71.509862    143.01972 
   26400    72620    301.73293   -169.33787   -8078331.2    65314.151   -8013017.1    731876.74    1.1291797    71.526886    71.526886    143.05377 
   26500    72620    298.48618   -616.46057   -8077782.7    64611.347   -8013171.3    731769.49    1.1293452    71.523392    71.523392    143.04678 
   26600    72620    300.87423    480.33575   -8077989.8    65128.273   -8012861.5     732417.4    1.1283461    71.544494    71.544494    143.08899 
   26700    72620    299.87245    391.67711   -8077910.1    64911.424   -8012998.6    731864.07    1.1291992    71.526473    71.526473    143.05295 
   26800    72620    302.32187    700.18368     -8077990    65441.634   -8012548.4    731956.61    1.1290564    71.529487    71.529487    143.05897 
   26900    72620    300.52232    75.871671   -8078298.7    65052.096   -8013246.6    731596.17    1.1296127    71.517744    71.517744    143.03549 
   27000    72620    299.34456     544.2535   -8077896.2    64797.155     -8013099    731297.83    1.1300735    71.508022    71.508022    143.01604 
   27100    72620    300.13424     722.0065   -8077440.1    64968.091     -8012472    731313.96    1.1300486    71.508548    71.508548     143.0171 
   27200    72620    300.58121    1190.4709   -8077861.2    65064.844   -8012796.4    731264.85    1.1301245    71.506947    71.506947    143.01389 
   27300    72620    299.77079   -110.52712   -8077827.2    64889.418   -8012937.8    731067.72    1.1304292    71.500521    71.500521    143.00104 
   27400    72620    301.81184    15.794251   -8077784.6     65331.23   -8012453.4    731631.02    1.1295589     71.51888     71.51888    143.03776 
   27500    72620    300.74606    77.993788   -8077697.7    65100.528   -8012597.2    730774.47    1.1308829    71.490959    71.490959    142.98192 
   27600    72620     299.8158   -464.23695   -8077883.6     64899.16   -8012984.4    731238.49    1.1301652    71.506088    71.506088    143.01218 
   27700    72620    298.89283    1011.9565   -8078139.5    64699.372   -8013440.1    731110.43    1.1303632    71.501913    71.501913    143.00383 
   27800    72620    300.22815   -660.07203   -8077907.1    64988.419   -8012918.7    731622.35    1.1295723    71.518598    71.518598     143.0372 
   27900    72620    299.71246    -50.57026   -8077824.2    64876.791   -8012947.4    731571.47    1.1296508     71.51694     71.51694    143.03388 
   28000    72620    299.19692   -643.41717   -8078217.5    64765.197   -8013452.3    731437.54    1.1298577    71.512575    71.512575    143.02515 
   28100    72620    300.25759   -28.204716   -8078336.2    64994.792   -8013341.4    731145.67    1.1303087    71.503062    71.503062    143.00612 
   28200    72620    300.81037    1064.7594   -8078168.9    65114.449   -8013054.4    730280.41    1.1316479    71.474845    71.474845    142.94969 
   28300    72620    301.36091   -535.11486   -8077971.7     65233.62   -8012738.1    731446.03    1.1298446    71.512852    71.512852     143.0257 
   28400    72620    299.37763    879.51065   -8078079.9    64804.314   -8013275.5    730396.94    1.1314674    71.478646    71.478646    142.95729 
   28500    72620    300.33691   -566.45083   -8078093.8    65011.963   -8013081.9    729943.18    1.1321708    71.463841    71.463841    142.92768 
   28600    72620    299.10257    556.26121   -8078467.9    64744.773   -8013723.1    729952.48    1.1321563    71.464144    71.464144    142.92829 
   28700    72620    300.25409   -1304.8441   -8078557.5    64994.035   -8013563.5    729671.29    1.1325926    71.454967    71.454967    142.90993 
   28800    72620    300.31937     415.6406   -8078233.8    65008.165   -8013225.7    728895.37    1.1337983     71.42963     71.42963    142.85926 
   28900    72620    301.92726    89.346305   -8078081.2    65356.215     -8012725     730130.5    1.1318803    71.469953    71.469953    142.93991 
   29000    72620    299.93265   -293.67439     -8077681    64924.456   -8012756.5    730560.32    1.1312144    71.483975    71.483975    142.96795 
   29100    72620    299.02639    522.50427   -8077850.8    64728.282   -8013122.5    730073.77    1.1319682    71.468102    71.468102     142.9362 
   29200    72620    301.44527    692.02832   -8077944.3    65251.881   -8012692.4     729742.5    1.1324821    71.457291    71.457291    142.91458 
   29300    72620    299.49278    113.33358   -8077987.7    64829.238   -8013158.4    730459.93    1.1313698    71.480701    71.480701     142.9614 
   29400    72620    299.09604    268.96777   -8077998.8    64743.359   -8013255.4    729694.15    1.1325571    71.455713    71.455713    142.91143 
   29500    72620    301.55489    51.611007   -8077918.8    65275.609   -8012643.2    729729.75    1.1325019    71.456875    71.456875    142.91375 
   29600    72620    299.31514   -19.304957   -8078191.5    64790.787   -8013400.7    729801.11    1.1323912    71.459204    71.459204    142.91841 
   29700    72620    299.42506   -644.02724   -8077928.2    64814.579   -8013113.6    730181.27    1.1318016     71.47161     71.47161    142.94322 
   29800    72620    299.80644   -771.08285   -8077988.3    64897.136   -8013091.2    729218.53    1.1332958    71.440184    71.440184    142.88037 
   29900    72620    298.45429    33.474925   -8078082.7    64604.443   -8013478.3    728819.19    1.1339168    71.427141    71.427141    142.85428 
   30000    72620    300.27353    58.624889   -8078041.8    64998.243   -8013043.6    729429.43    1.1329682    71.447071    71.447071    142.89414 
   30100    72620    299.54982   -500.01354   -8078293.2    64841.586   -8013451.6    729726.94    1.1325062    71.456783    71.456783    142.91357 
   30200    72620    299.70895   -46.986497   -8078067.2    64876.033   -8013191.1    729755.39    1.1324621    71.457712    71.457712    142.91542 
   30300    72620    300.69873    -63.70719   -8078022.5    65090.283   -8012932.2    730057.59    1.1319933    71.467574    71.467574    142.93515 
   30400    72620    302.25415    427.21309   -8077704.4    65426.975   -8012277.5    729900.84    1.1322364    71.462459    71.462459    142.92492 
   30500    72620    299.43367   -454.89368   -8077875.2    64816.443   -8013058.8    729113.05    1.1334598     71.43674     71.43674    142.87348 
   30600    72620    299.67094   -663.52424   -8078207.6    64867.805   -8013339.8    729408.94        1.133    71.446402    71.446402     142.8928 
   30700    72620    300.08521   -783.82194   -8078055.6    64957.478   -8013098.1     729566.8    1.1327548    71.451556    71.451556    142.90311 
   30800    72620    300.19742   -105.84634   -8078146.9    64981.768   -8013165.2    728905.47    1.1337826     71.42996     71.42996    142.85992 
   30900    72620    299.21908    433.89291   -8078493.5    64769.993   -8013723.6    728110.77    1.1350201    71.403991    71.403991    142.80798 
   31000    72620    300.90594    252.06506   -8078321.8    65135.135   -8013186.7    728120.59    1.1350047    71.404312    71.404312    142.80862 
   31100    72620    300.39946   -251.46937     -8078444    65025.503   -8013418.5     727391.1     1.136143    71.380458    71.380458    142.76092 
   31200    72620     298.7918    241.50274   -8078736.2    64677.502   -8014058.7     728381.8    1.1345977     71.41285     71.41285     142.8257 
   31300    72620    299.77041    361.23159   -8078424.6    64889.335   -8013535.3    728572.55    1.1343007    71.419083    71.419083    142.83817 
   31400    72620    298.98964    1348.5305   -8078141.4    64720.327     -8013421    728439.78    1.1345074    71.414744    71.414744    142.82949 
   31500    72620    299.82302     739.3566   -8078347.8    64900.725   -8013447.1    728401.13    1.1345676    71.413482    71.413482    142.82696 
   31600    72620    300.86892     162.4314   -8078089.1    65127.124     -8012962    727938.28     1.135289    71.398352    71.398352     142.7967 
   31700    72620    299.48287    714.11484   -8078298.1    64827.095     -8013471     728301.7    1.1347225    71.410232    71.410232    142.82046 
   31800    72620    300.59234    1174.1464   -8078295.3    65067.253     -8013228    728637.97    1.1341988    71.421221    71.421221    142.84244 
   31900    72620    302.46713   -412.20261     -8077983    65473.078   -8012509.9     729231.2    1.1332761    71.440598    71.440598     142.8812 
   32000    72620    300.20049    -1808.166   -8078131.1    64982.431   -8013148.6    729353.04    1.1330868    71.444577    71.444577    142.88915 
   32100    72620    300.98439    -1009.025   -8078243.7    65152.119   -8013091.6    728851.91    1.1338659     71.42821     71.42821    142.85642 
   32200    72620    299.36306    81.441477   -8078491.7    64801.159   -8013690.5    729123.77    1.1334431     71.43709     71.43709    142.87418 
   32300    72620    299.50781   -27.099619   -8078513.4    64832.492   -8013680.9    728444.37    1.1345003    71.414894    71.414894    142.82979 
   32400    72620    299.99642   -208.21836   -8078125.8    64938.259   -8013187.5    728596.66    1.1342631    71.419871    71.419871    142.83974 
   32500    72620    298.59793    276.89207   -8078203.2    64635.537   -8013567.7    728576.44    1.1342946     71.41921     71.41921    142.83842 
   32600    72620    300.54815    412.31499     -8078029    65057.688   -8012971.3    727366.44    1.1361815    71.379651    71.379651     142.7593 
   32700    72620    299.85836   -908.04702   -8078232.6    64908.375   -8013324.2    727937.54    1.1352901    71.398328    71.398328    142.79666 
   32800    72620    298.97374   -736.10807   -8078224.9    64716.885     -8013508    728249.44    1.1348039    71.408524    71.408524    142.81705 
   32900    72620    300.35772    1362.5485   -8078665.1    65016.466   -8013648.7    728248.45    1.1348055    71.408491    71.408491    142.81698 
   33000    72620    299.39641   -49.259011     -8078175    64808.379   -8013366.6    728421.12    1.1345365    71.414134    71.414134    142.82827 
   33100    72620      300.412    1106.7202     -8078456    65028.217   -8013427.8    728042.46    1.1351265    71.401758    71.401758    142.80352 
   33200    72620    299.24947   -452.82226   -8078478.3    64776.571   -8013701.8    727117.68    1.1365702    71.371513    71.371513    142.74303 
   33300    72620     299.2736    875.74184   -8078276.9    64781.795   -8013495.1    726813.42     1.137046    71.361556    71.361556    142.72311 
   33400    72620    299.41291   -195.83759   -8078116.4     64811.95   -8013304.5    726630.52    1.1373323     71.35557     71.35557    142.71114 
   33500    72620    299.82542    767.65233   -8078676.4    64901.243   -8013775.1    726335.14    1.1377948      71.3459      71.3459     142.6918 
   33600    72620    300.35548   -211.67958   -8078560.3    65015.981   -8013544.3    726847.65    1.1369925    71.362677    71.362677    142.72535 
   33700    72620    300.73524    1346.9807   -8078217.7    65098.185   -8013119.5    725967.15    1.1383715    71.333849    71.333849     142.6677 
   33800    72620    299.04612    324.11799   -8078364.5    64732.553   -8013631.9    726573.75    1.1374211    71.353712    71.353712    142.70742 
   33900    72620    300.89538   -881.32936   -8078532.6     65132.85   -8013399.7    727065.74    1.1366514    71.369814    71.369814    142.73963 
   34000    72620    299.08568    502.64897   -8078205.5    64741.116   -8013464.4    726667.47    1.1372744     71.35678     71.35678    142.71356 
   34100    72620     300.4467   -139.56658   -8078487.7    65035.729   -8013451.9    726257.44    1.1379165    71.343356    71.343356    142.68671 
   34200    72620     300.6187    453.31447   -8078678.9    65072.959   -8013605.9     725598.1    1.1389505    71.321759    71.321759    142.64352 
   34300    72620    300.41803   -124.55789   -8078866.3    65029.522   -8013836.8    725138.14    1.1396729    71.306686    71.306686    142.61337 
   34400    72620    299.99124    355.98852   -8078124.9    64937.137   -8013187.8     726391.8     1.137706    71.347755    71.347755    142.69551 
   34500    72620    300.16867   -993.72614   -8078454.3    64975.543   -8013478.7     726867.5    1.1369614    71.363327    71.363327    142.72665 
   34600    72620    300.12609   -457.89573   -8078587.3    64966.328     -8013621    725640.14    1.1388845    71.323137    71.323137    142.64627 
   34700    72620    299.75127   -161.84987     -8078448    64885.192   -8013562.8    725483.31    1.1391307    71.317998    71.317998      142.636 
   34800    72620    300.52783   -688.48433   -8078169.7     65053.29   -8013116.4    724916.29    1.1400217    71.299413    71.299413    142.59883 
   34900    72620     299.2177    775.33723   -8078535.8    64769.694   -8013766.1    725500.74    1.1391033    71.318569    71.318569    142.63714 
   35000    72620    301.16987   -807.84055   -8078677.3    65192.267     -8013485    725435.39     1.139206    71.316428    71.316428    142.63286 
   35100    72620    298.62851    540.14897   -8078128.6    64642.155   -8013486.4    725649.32    1.1388701    71.323437    71.323437    142.64687 
   35200    72620    298.91325   -124.11114   -8077945.4    64703.792   -8013241.6     726610.2    1.1373641    71.354905    71.354905    142.70981 
   35300    72620    300.54271    378.59831   -8078367.6    65056.511   -8013311.1    726256.98    1.1379172    71.343341    71.343341    142.68668 
   35400    72620    299.70719   -132.88392   -8078770.2    64875.651   -8013894.5    725454.93    1.1391753    71.317068    71.317068    142.63414 
   35500    72620    300.44929    661.36344   -8078562.4    65036.288   -8013526.1    725127.22    1.1396901    71.306328    71.306328    142.61266 
   35600    72620    298.78743   -1156.9061     -8078599    64676.556   -8013922.5     724685.1    1.1403854    71.291833    71.291833    142.58367 
   35700    72620     298.9197   -440.20285   -8078166.2    64705.188     -8013461    725936.52    1.1384195    71.332846    71.332846    142.66569 
   35800    72620    299.05672    478.12333   -8078113.6    64734.847   -8013378.8    726264.22    1.1379059    71.343578    71.343578    142.68716 
   35900    72620    299.89249      584.084   -8078677.7    64915.762     -8013762    725461.42    1.1391651    71.317281    71.317281    142.63456 
   36000    72620    300.29792    815.37829   -8078593.4    65003.523   -8013589.9    725692.96    1.1388016    71.324867    71.324867    142.64973 
   36100    72620    301.09927   -1219.4433   -8078677.7    65176.984   -8013500.7    725657.63    1.1388571     71.32371     71.32371    142.64742 
   36200    72620    300.06322    271.44652     -8078723    64952.719   -8013770.3    725386.68    1.1392825    71.314831    71.314831    142.62966 
   36300    72620    299.55021   -378.60475   -8078651.8     64841.67   -8013810.1    724639.62     1.140457    71.290341    71.290341    142.58068 
   36400    72620     300.5207   -151.88099   -8078559.7    65051.746     -8013508     724378.7    1.1408678    71.281784    71.281784    142.56357 
   36500    72620    300.22768    153.53099   -8078808.8    64988.318   -8013820.5    724555.87    1.1405888    71.287595    71.287595    142.57519 
   36600    72620    299.63213   -44.651431   -8078329.6    64859.404   -8013470.2    725072.16    1.1397767    71.304523    71.304523    142.60905 
   36700    72620    301.37608   -898.84089     -8078276    65236.904   -8013039.1    725521.17    1.1390713    71.319239    71.319239    142.63848 
   36800    72620    300.70731   -54.149178   -8078744.8    65092.141   -8013652.6    725185.37    1.1395987    71.308234    71.308234    142.61647 
   36900    72620    299.59165   -445.84277   -8078468.9    64850.641   -8013618.3    725039.82    1.1398275    71.303463    71.303463    142.60693 
   37000    72620    301.41343   -429.05643   -8078191.4    65244.989   -8012946.4     725036.5    1.1398327    71.303354    71.303354    142.60671 
   37100    72620    299.55187   -826.70381   -8078458.6     64842.03   -8013616.5    725211.93     1.139557    71.309104    71.309104    142.61821 
   37200    72620    299.10702   -231.90328   -8078710.7    64745.736   -8013964.9    725605.77    1.1389385     71.32201     71.32201    142.64402 
   37300    72620    300.47687    419.81472   -8079174.2    65042.259     -8014132     725573.9    1.1389885    71.320966    71.320966    142.64193 
   37400    72620    297.89432    -692.7538   -8078200.3    64483.231   -8013717.1    725149.86    1.1396545     71.30707     71.30707    142.61414 
   37500    72620    300.70601     332.1226   -8078594.3    65091.859   -8013502.4    724921.24     1.140014    71.299575    71.299575    142.59915 
   37600    72620    298.53429    -1361.442   -8078639.1    64621.761   -8014017.3    723939.83    1.1415594    71.267385    71.267385    142.53477 
   37700    72620    299.99781    694.66064   -8078226.1    64938.559   -8013287.6    724132.99    1.1412549    71.273723    71.273723    142.54745 
   37800    72620    299.16374   -33.947277   -8078525.1    64758.014   -8013767.1     724187.6    1.1411688    71.275515    71.275515    142.55103 
   37900    72620    298.72127    -977.9116   -8078512.3    64662.236   -8013850.1    724226.39    1.1411077    71.276787    71.276787    142.55357 
   38000    72620    300.62057    549.93675     -8078413    65073.365   -8013339.6    723871.33    1.1416674    71.265137    71.265137    142.53027 
   38100    72620    297.70495   -1298.1051   -8078221.4    64442.239   -8013779.2     724111.9    1.1412881    71.273031    71.273031    142.54606 
   38200    72620    299.09795    35.565888   -8078507.9    64743.773   -8013764.1    724068.54    1.1413565    71.271609    71.271609    142.54322 
   38300    72620    300.41725    678.89654   -8078837.5    65029.354   -8013808.2    724243.12    1.1410814    71.277336    71.277336    142.55467 
   38400    72620    298.88163   -88.235356   -8078881.8    64696.947   -8014184.9    724318.42    1.1409627    71.279806    71.279806    142.55961 
   38500    72620    301.01702   -1769.1129   -8078791.2    65159.182     -8013632    723670.97    1.1419835    71.258562    71.258562    142.51712 
   38600    72620    300.50343     -166.544     -8078831    65048.007     -8013783    722553.44    1.1437498    71.221863    71.221863    142.44373 
   38700    72620    300.11244    1071.0163   -8079130.8    64963.373   -8014167.4    722744.82    1.1434469     71.22815     71.22815     142.4563 
   38800    72620    301.01464    187.09836   -8079009.8    65158.665   -8013851.1    723777.28    1.1418158    71.262051    71.262051     142.5241 
   38900    72620     299.4834   -664.84013   -8078778.8    64827.209   -8013951.6    723518.39    1.1422244    71.253553    71.253553    142.50711 
   39000    72620    299.77563    2162.3996   -8079039.4    64890.465   -8014148.9    723118.28    1.1428564    71.240416    71.240416    142.48083 
   39100    72620    301.10192   -1147.7648   -8078847.8    65177.559   -8013670.2    722963.99    1.1431003    71.235349    71.235349     142.4707 
   39200    72620    301.39783    470.02216   -8078600.3    65241.613   -8013358.7    723456.86    1.1423215    71.251533    71.251533    142.50307 
   39300    72620     298.3672   -1246.6329   -8078651.4    64585.592   -8014065.9    724055.14    1.1413776    71.271169    71.271169    142.54234 
   39400    72620    300.27232    470.16033     -8078633    64997.981     -8013635    724613.56     1.140498    71.289487    71.289487    142.57897 
   39500    72620    300.56471   -220.81717   -8078492.6    65061.272   -8013431.3    724050.25    1.1413853    71.271008    71.271008    142.54202 
   39600    72620    300.02636    848.94269   -8078619.3     64944.74   -8013674.5    722917.61    1.1431736    71.233826    71.233826    142.46765 
   39700    72620    299.58462   -531.47547   -8079132.5    64849.118   -8014283.3    722634.94    1.1436208     71.22454     71.22454    142.44908 
   39800    72620    299.74518    699.00483   -8078370.2    64883.874   -8013486.3    722443.73    1.1439235    71.218257    71.218257    142.43651 
   39900    72620    299.94321    234.85658     -8078740     64926.74   -8013813.3    722065.71    1.1445223    71.205834    71.205834    142.41167 
   40000    72620    300.04813    382.04324   -8079031.6    64949.452   -8014082.1     722700.1    1.1435176    71.226681    71.226681    142.45336 
   40100    72620    301.75899   -336.04021   -8078828.7     65319.79   -8013508.9     722427.1    1.1439498    71.217711    71.217711    142.43542 
   40200    72620    297.93185    74.826991   -8078760.8    64491.354   -8014269.4    721739.82    1.1450391     71.19512     71.19512    142.39024 
   40300    72620    299.52054    411.47979   -8078520.4    64835.249   -8013685.1    720904.36    1.1463661    71.167638    71.167638    142.33528 
   40400    72620    301.75554    184.66703   -8079010.4    65319.044   -8013691.3    721212.56    1.1458762    71.177778    71.177778    142.35556 
   40500    72620    298.96124   -424.18742     -8078679     64714.18   -8013964.8    721313.28    1.1457162    71.181092    71.181092    142.36218 
   40600    72620    300.60884   -362.58365     -8078496    65070.825   -8013425.2    721472.58    1.1454632    71.186331    71.186331    142.37266 
   40700    72620    298.90533   -25.225315   -8078678.9    64702.078   -8013976.8    721047.06    1.1461392    71.172334    71.172334    142.34467 
   40800    72620    300.08832   -389.15882   -8078742.4    64958.152   -8013784.3    720724.76    1.1466518    71.161728    71.161728    142.32346 
   40900    72620     301.4855   -73.082699   -8078814.9    65260.589   -8013554.4    721045.19    1.1461422    71.172272    71.172272    142.34454 
   41000    72620    299.79846   -65.941083   -8079115.1    64895.406   -8014219.7    721698.63    1.1451045    71.193765    71.193765    142.38753 
   41100    72620    301.53912   -194.64356   -8078932.8    65272.196   -8013660.6    721255.88    1.1458074    71.179204    71.179204    142.35841 
   41200    72620    300.04551   -671.97359   -8078592.5    64948.885   -8013643.6    720924.63    1.1463339    71.168305    71.168305    142.33661 
   41300    72620    299.34685   -1118.2191   -8078981.8    64797.651   -8014184.1    720584.55    1.1468749    71.157112    71.157112    142.31422 
   41400    72620    300.12203    687.71911   -8078641.9    64965.448   -8013676.4    720188.67    1.1475053    71.144079    71.144079    142.28816 
   41500    72620    300.00149    254.40854   -8078388.3    64939.356   -8013448.9    721260.23    1.1458005    71.179347    71.179347    142.35869 
   41600    72620    298.75088   -1818.5185   -8078585.4    64668.646   -8013916.7    722295.99    1.1441574    71.213403    71.213403    142.42681 
   41700    72620    300.10734    65.947468   -8078442.6    64962.268   -8013480.3     721560.1    1.1453243     71.18921     71.18921    142.37842 
   41800    72620    299.88206   -638.82431   -8078374.5    64913.503     -8013461    722133.09    1.1444155    71.208048    71.208048     142.4161 
   41900    72620    301.88876    550.51238   -8079126.7     65347.88   -8013778.9     721209.4    1.1458812    71.177674    71.177674    142.35535 
   42000    72620     299.2676    497.66102   -8079006.7    64780.497   -8014226.2    720173.77     1.147529    71.143589    71.143589    142.28718 
   42100    72620    299.94481    260.68065   -8079209.9    64927.087   -8014282.9    719995.27    1.1478135     71.13771     71.13771    142.27542 
   42200    72620     300.7841     526.6665     -8079056    65108.763   -8013947.2    719907.23    1.1479539    71.134811    71.134811    142.26962 
   42300    72620    299.35079    376.00618   -8079052.4    64798.504   -8014253.9    720851.27    1.1464505    71.165891    71.165891    142.33178 
   42400    72620    297.73721   -31.367892   -8078826.5    64449.221   -8014377.3    720683.03    1.1467182    71.160354    71.160354    142.32071 
   42500    72620    299.95868   -1159.2067   -8078716.8    64930.089   -8013786.7    720454.33    1.1470822    71.152826    71.152826    142.30565 
   42600    72620    299.08597    32.231746   -8078823.5     64741.18   -8014082.3    720960.41     1.146277    71.169483    71.169483    142.33897 
   42700    72620    298.73032    633.82401   -8079100.5    64664.194   -8014436.3    721658.13    1.1451687    71.192433    71.192433    142.38487 
   42800    72620    300.20109    1339.8113   -8078990.3    64982.562   -8014007.7    721400.57    1.1455776    71.183963    71.183963    142.36793 
   42900    72620    300.47799   -604.66986   -8079096.2      65042.5   -8014053.7    721413.71    1.1455567    71.184395    71.184395    142.36879 
   43000    72620    300.36029   -1136.4234   -8078625.7    65017.023   -8013608.7     720731.1    1.1466417    71.161936    71.161936    142.32387 
   43100    72620    299.24977    -253.1094   -8078586.8    64776.635   -8013810.1    722112.62     1.144448    71.207376    71.207376    142.41475 
   43200    72620    300.23425    23.367875   -8079012.1    64989.741   -8014022.4    722853.48     1.143275    71.231719    71.231719    142.46344 
   43300    72620    300.18083    99.334294   -8079043.6    64978.177   -8014065.4    722083.13    1.1444947    71.206406    71.206406    142.41281 
   43400    72620    299.41827   -260.08356   -8078676.2    64813.109     -8013863    721814.83    1.1449201    71.197586    71.197586    142.39517 
   43500    72620    300.28419   -171.59908   -8078612.1    65000.549   -8013611.5    722272.53    1.1441946    71.212631    71.212631    142.42526 
   43600    72620    298.97538    -552.9294   -8079031.4     64717.24   -8014314.2    722209.27    1.1442948    71.210552    71.210552     142.4211 
   43700    72620    300.19808   -747.79387   -8078906.3    64981.911   -8013924.4    722249.73    1.1442307    71.211882    71.211882    142.42376 
   43800    72620    300.55184    540.68253   -8078976.6    65058.486   -8013918.1    721733.73    1.1450488    71.194919    71.194919    142.38984 
   43900    72620    299.65664   -648.91033   -8078912.5    64864.708   -8014047.8    721442.82    1.1455105    71.185353    71.185353    142.37071 
   44000    72620    300.71413   -69.873423   -8078780.3    65093.616   -8013686.7    721209.37    1.1458813    71.177673    71.177673    142.35535 
   44100    72620    299.55509   -1356.5834   -8078920.9    64842.727   -8014078.2     722005.6    1.1446176    71.203858    71.203858    142.40772 
   44200    72620    298.77339   -481.21717   -8079106.8    64673.517   -8014433.3    720387.65    1.1471884    71.150631    71.150631    142.30126 
   44300    72620    301.57961    716.32066   -8078995.2    65280.961   -8013714.2    720553.33    1.1469246    71.156085    71.156085    142.31217 
   44400    72620    300.14878    -59.60939   -8079140.8    64971.239   -8014169.6    721304.12    1.1457308     71.18079     71.18079    142.36158 
   44500    72620    299.67981   -836.73034   -8079190.9    64869.725   -8014321.2    720758.29    1.1465984    71.162831    71.162831    142.32566 
   44600    72620    299.25572   -1370.8026   -8078465.7    64777.924   -8013687.8    720875.55    1.1464119     71.16669     71.16669    142.33338 
   44700    72620    298.43406   -1046.7022   -8078834.8    64600.065   -8014234.7    720004.25    1.1477992    71.138006    71.138006    142.27601 
   44800    72620    300.06216    285.00783   -8079034.9    64952.488   -8014082.4     720184.7    1.1475116    71.143949    71.143949     142.2879 
   44900    72620    299.05777   -265.12677   -8078801.5    64735.074   -8014066.5     721120.7    1.1460222    71.174756    71.174756    142.34951 
   45000    72620    300.24543     -265.387   -8078620.2     64992.16   -8013628.1     721516.1    1.1453942    71.187763    71.187763    142.37553 
   45100    72620    299.32176   -298.89077   -8079149.5    64792.219   -8014357.3    721357.29    1.1456463    71.182539    71.182539    142.36508 
   45200    72620    298.83817   -253.88675   -8078728.7    64687.539   -8014041.2    720155.21    1.1475586    71.142977    71.142977    142.28595 
   45300    72620    300.84875   -410.78745   -8079118.4    65122.757   -8013995.6    719766.34    1.1481786     71.13017     71.13017    142.26034 
   45400    72620    299.64116   -335.29445   -8079263.8    64861.358   -8014402.5    719246.64    1.1490082    71.113046    71.113046    142.22609 
   45500    72620     299.3148    324.69349   -8078952.3    64790.714   -8014161.6    719080.38    1.1492739    71.107566    71.107566    142.21513 
   45600    72620    300.83413    448.93346   -8079048.9    65119.591   -8013929.3    719752.76    1.1482003    71.129723    71.129723    142.25945 
   45700    72620    299.80262   -46.781407   -8079180.5    64896.308   -8014284.2     719387.7     1.148783    71.117695    71.117695    142.23539 
   45800    72620    300.00102    86.897402   -8078352.9    64939.253   -8013413.6    719671.87    1.1483293    71.127058    71.127058    142.25412 
   45900    72620    300.01637   -632.42721   -8078857.4    64942.576   -8013914.9    719168.55     1.149133    71.110472    71.110472    142.22094 
   46000    72620    298.56598   -416.86817   -8078793.2    64628.621   -8014164.5     719312.1    1.1489037    71.115204    71.115204    142.23041 
   46100    72620    300.58608   -157.28543   -8078479.6    65065.898   -8013413.7    719115.85    1.1492172    71.108735    71.108735    142.21747 
   46200    72620    300.41103   -898.00405   -8078737.1    65028.007   -8013709.1    719274.07    1.1489644     71.11395     71.11395     142.2279 
   46300    72620    300.01146    467.35036   -8078942.6    64941.515   -8014001.1    720050.14    1.1477261    71.139517    71.139517    142.27903 
   46400    72620    301.88669   -129.46011   -8078975.6    65347.433   -8013628.2    719737.43    1.1482247    71.129218    71.129218    142.25844 
   46500    72620    300.06839     610.2681   -8078710.5    64953.837   -8013756.7    719174.43    1.1491236    71.110666    71.110666    142.22133 
   46600    72620    300.76391   -1259.8266   -8079144.1    65104.392   -8014039.7    719707.36    1.1482727    71.128227    71.128227    142.25645 
   46700    72620     299.4983   -850.45496   -8079109.5    64830.433     -8014279    719579.18    1.1484773    71.124004    71.124004    142.24801 
   46800    72620    298.51094    -410.3884   -8079110.3    64616.707   -8014493.6    720123.43    1.1476093    71.141931    71.141931    142.28386 
   46900    72620    299.94022    293.42141   -8078787.7    64926.093   -8013861.6    719962.76    1.1478654    71.136639    71.136639    142.27328 
   47000    72620    300.08588    711.14127   -8079145.1    64957.623   -8014187.5    720828.93    1.1464861    71.165156    71.165156    142.33031 
   47100    72620    300.86183   -574.73725   -8078624.6    65125.587     -8013499    720746.37    1.1466174    71.162439    71.162439    142.32488 
   47200    72620    298.96227    205.69428   -8078657.3    64714.402   -8013942.9    719748.41    1.1482072    71.129579    71.129579    142.25916 
   47300    72620    299.08974   -153.16526   -8079407.8    64741.995   -8014665.8    720003.81    1.1477999    71.137992    71.137992    142.27598 
   47400    72620    299.12027    2278.9319   -8078983.4    64748.605   -8014234.8    719763.72    1.1481828    71.130084    71.130084    142.26017 
   47500    72620    300.09991    428.12341   -8079022.3    64960.659   -8014061.6    719034.55    1.1493472    71.106056    71.106056    142.21211 
   47600    72620    300.37429   -253.16874   -8079074.5    65020.053   -8014054.5    719779.76    1.1481572    71.130612    71.130612    142.26122 
   47700    72620    300.43059   -613.42329   -8078933.4     65032.24   -8013901.2    720122.15    1.1476113    71.141889    71.141889    142.28378 
   47800    72620    300.27461    472.40143     -8079387    64998.476   -8014388.5    720940.12    1.1463092    71.168815    71.168815    142.33763 
   47900    72620    300.56865      999.188   -8078865.7    65062.126   -8013803.5    720590.46    1.1468655    71.157307    71.157307    142.31461 
   48000    72620    299.32549    174.11424   -8078964.8    64793.027   -8014171.8    720860.07    1.1464365    71.166181    71.166181    142.33236 
   48100    72620     299.3413   -2092.9677   -8078919.4    64796.449   -8014122.9    721660.26    1.1451653    71.192504    71.192504    142.38501 
   48200    72620    299.13117   -422.15832   -8079044.8    64750.964   -8014293.9    720962.66    1.1462734    71.169557    71.169557    142.33911 
   48300    72620     299.3139    33.737608   -8079132.6    64790.518   -8014342.1    720493.12    1.1470204    71.154103    71.154103    142.30821 
   48400    72620    301.33032    1253.5808   -8079334.9    65226.999   -8014107.9     719938.9    1.1479034    71.135854    71.135854    142.27171 
   48500    72620    299.08755    1619.5972   -8079392.9    64741.522   -8014651.3    719129.18    1.1491959    71.109175    71.109175    142.21835 
   48600    72620    301.64458    178.15272   -8079241.3    65295.026   -8013946.3    718717.16    1.1498547    71.095592    71.095592    142.19118 
   48700    72620     301.0362    12.699173   -8079337.4    65163.332   -8014174.1    718436.56    1.1503038    71.086338    71.086338    142.17268 
   48800    72620    298.39817    570.50997     -8079483    64592.295   -8014890.7    719013.48    1.1493808    71.105361    71.105361    142.21072 
   48900    72620    299.20359   -1065.2582   -8079097.3     64766.64   -8014330.6    719785.25    1.1481484    71.130793    71.130793    142.26159 
   49000    72620    300.38461    462.11775     -8079057    65022.288   -8014034.7    719140.95    1.1491771    71.109563    71.109563    142.21913 
   49100    72620    301.19253    419.42028   -8079493.3    65197.173   -8014296.1    719505.63    1.1485947    71.121581    71.121581    142.24316 
   49200    72620     299.3271    638.05035   -8079182.6    64793.375   -8014389.2    719179.28    1.1491159    71.110826    71.110826    142.22165 
   49300    72620    301.39806    157.22132   -8079207.4    65241.663   -8013965.7    718836.83    1.1496633    71.099537    71.099537    142.19907 
   49400    72620    298.77653   -305.27446   -8078955.8    64674.197   -8014281.6    718061.02    1.1509054     71.07395     71.07395     142.1479 
   49500    72620    298.39359    1.6746579   -8079218.3    64591.305     -8014627    718711.22    1.1498642    71.095396    71.095396    142.19079 
   49600    72620    300.84586   -194.47892   -8079219.8    65122.132   -8014097.6    718045.11    1.1509309    71.073425    71.073425    142.14685 
   49700    72620     300.3121    5.8600446   -8078890.1    65006.592   -8013883.5    717841.68    1.1512571    71.066712    71.066712    142.13342 
   49800    72620    300.62927   -745.09854   -8078760.2    65075.247   -8013684.9     718352.2    1.1504389    71.083556    71.083556    142.16711 
   49900    72620    299.80161    836.46468   -8079097.4    64896.089   -8014201.3    718704.78    1.1498745    71.095184    71.095184    142.19037 
   50000    72620    299.75308    130.59362     -8079301    64885.585   -8014415.4    718715.87    1.1498568    71.095549    71.095549     142.1911 
   50100    72620    299.30262   -216.81901   -8079130.9    64788.076   -8014342.8    719025.59    1.1493615     71.10576     71.10576    142.21152 
   50200    72620    300.16242   -366.51066   -8078956.6    64974.191   -8013982.4    718566.68    1.1500955     71.09063     71.09063    142.18126 
   50300    72620    299.14042   -623.12009     -8079338    64752.966     -8014585    718379.89    1.1503946    71.084469    71.084469    142.16894 
   50400    72620    299.79235   -513.49272   -8079513.1    64894.084     -8014619     718537.8    1.1501418    71.089677    71.089677    142.17935 
   50500    72620    299.89133    266.18874     -8079141    64915.511   -8014225.4    718749.86    1.1498024     71.09667     71.09667    142.19334 
   50600    72620    298.69217   -1400.5859   -8078805.3    64655.937   -8014149.3    720343.91     1.147258    71.149191    71.149191    142.29838 
   50700    72620    298.67933    2342.3472   -8078713.5    64653.157   -8014060.4     720663.1    1.1467499    71.159698    71.159698     142.3194 
   50800    72620      299.763   -670.38735   -8078782.2    64887.732   -8013894.4    720912.49    1.1463532    71.167905    71.167905    142.33581 
   50900    72620    299.15445    247.25327   -8079198.7    64756.003   -8014442.7    720025.25    1.1477658    71.138698    71.138698     142.2774 
   51000    72620    299.99503    885.44629   -8078718.5    64937.959   -8013780.5    719600.89    1.1484426    71.124719    71.124719    142.24944 
[...]
   87600    72620    300.04508   -955.84645   -8080058.1    64948.792   -8015109.3    711217.72    1.1619794    70.847445    70.847445    141.69489 
   87700    72620    299.66052    449.37381   -8080015.5    64865.549     -8015150    711427.18    1.1616373    70.854399    70.854399     141.7088 
   87800    72620    300.41457    663.69147   -8079862.2    65028.774   -8014833.4    712106.86    1.1605285    70.876956    70.876956    141.75391 
   87900    72620    299.21677    108.22252   -8079806.8    64769.494   -8015037.3    712434.57    1.1599947    70.887827    70.887827    141.77565 
   88000    72620    299.89247    1433.1757   -8079952.2    64915.756   -8015036.4    712184.32    1.1604023    70.879526    70.879526    141.75905 
   88100    72620    301.58081    47.261037   -8079764.5    65281.222   -8014483.2    712750.99    1.1594797     70.89832     70.89832    141.79664 
   88200    72620    299.29853   -338.09929   -8079894.2     64787.19     -8015107    713066.96    1.1589659    70.908795    70.908795    141.81759 
   88300    72620    300.41831   -1207.9029   -8080056.8    65029.583   -8015027.2     712098.9    1.1605415    70.876692    70.876692    141.75338 
   88400    72620    300.64843    34.163464   -8080047.5    65079.395   -8014968.1    711490.84    1.1615333    70.856512    70.856512    141.71302 
   88500    72620    300.00982   -695.90999   -8079913.4    64941.158   -8014972.2    711924.12    1.1608264    70.870893    70.870893    141.74179 
   88600    72620    299.26989   -701.61445   -8080127.3    64780.991   -8015346.3    712472.57    1.1599328    70.889087    70.889087    141.77817 
   88700    72620    300.29514    368.51545   -8079630.8    65002.921   -8014627.9    713873.35    1.1576568    70.935515    70.935515    141.87103 
   88800    72620    299.21174    -1192.953   -8079761.4    64768.405     -8014993    714024.98    1.1574109    70.940537    70.940537    141.88107 
   88900    72620    299.35906    79.024258   -8079742.6    64800.294   -8014942.3    713824.63    1.1577358    70.933901    70.933901     141.8678 
   89000    72620    300.92394   -443.93323   -8079906.7    65139.033   -8014767.7    713856.83    1.1576836    70.934968    70.934968    141.86994 
   89100    72620    298.69167     429.8038   -8079824.6    64655.829   -8015168.7     712930.5    1.1591878    70.904272    70.904272    141.80854 
   89200    72620    302.56111    255.75968   -8080018.3    65493.419   -8014524.9    711813.31    1.1610071    70.867216    70.867216    141.73443 
   89300    72620    299.62284   -406.68409   -8079967.1    64857.393   -8015109.7    711120.76    1.1621378    70.844225    70.844225    141.68845 
   89400    72620    299.93977   -323.87638   -8080024.5    64925.995   -8015098.5    711141.99    1.1621031     70.84493     70.84493    141.68986 
   89500    72620     302.0898    80.372056   -8079875.9      65391.4   -8014484.5    711060.87    1.1622357    70.842236    70.842236    141.68447 
   89600    72620    299.92459    622.91042   -8080243.3    64922.711   -8015320.6     711477.7    1.1615548    70.856076    70.856076    141.71215 
   89700    72620    299.44356    286.33946   -8079679.9    64818.585   -8014861.3    711872.31    1.1609109    70.869173    70.869173    141.73835 
   89800    72620    298.93209    783.93144   -8079858.4    64707.871   -8015150.5    711421.99    1.1616457    70.854227    70.854227    141.70845 
   89900    72620     299.8519    719.70143   -8080232.2    64906.976   -8015325.2    710886.71    1.1625204    70.836452    70.836452     141.6729 
   90000    72620    299.81005   -1429.8563   -8079776.3    64897.916   -8014878.3    711157.17    1.1620783    70.845434    70.845434    141.69087 
   90100    72620    301.24751    255.49359   -8080077.6    65209.075   -8014868.5    710980.21    1.1623675    70.839557    70.839557    141.67911 
   90200    72620    298.36416    1032.9568   -8080036.5    64584.934   -8015451.6       711176    1.1620475     70.84606     70.84606    141.69212 
   90300    72620    300.25547   -414.95733   -8080087.7    64994.333   -8015093.3    710770.53    1.1627105    70.832593    70.832593    141.66519 
   90400    72620    300.51054   -288.52429   -8079549.7    65049.546   -8014500.1    710398.39    1.1633195    70.820229    70.820229    141.64046 
   90500    72620    300.43966   -579.57539   -8080091.4    65034.203   -8015057.2    710962.37    1.1623967    70.838965    70.838965    141.67793 
   90600    72620    299.38114    3.7646453   -8080110.4    64805.073   -8015305.3    711156.45    1.1620795     70.84541     70.84541    141.69082 
   90700    72620    299.90543    -468.8996   -8079703.5    64918.562     -8014785    711935.14    1.1608084    70.871258    70.871258    141.74252 
   90800    72620    302.07387   -97.798576   -8079964.5     65387.95   -8014576.5    711766.63    1.1610833    70.865666    70.865666    141.73133 
   90900    72620    300.54529   -378.00375   -8080144.3    65057.068   -8015087.2    711396.68    1.1616871    70.853387    70.853387    141.70677 
   91000    72620    301.23619    1058.0452     -8080220    65206.624   -8015013.3    711489.25    1.1615359     70.85646     70.85646    141.71292 
   91100    72620    298.76586   -1866.0827     -8080019    64671.886   -8015347.1    711924.79    1.1608253    70.870915    70.870915    141.74183 
   91200    72620    299.85867   -908.22927   -8079969.3    64908.441   -8015060.9     711844.3    1.1609566    70.868244    70.868244    141.73649 
   91300    72620    299.85373    903.43533   -8079588.9     64907.37   -8014681.5    710692.46    1.1628382    70.829999    70.829999       141.66 
   91400    72620    299.27664   -365.03305   -8079783.2    64782.452   -8015000.8    710191.36    1.1636586    70.813348    70.813348     141.6267 
   91500    72620     299.9447    -1885.736   -8079800.9    64927.063   -8014873.8     711184.8    1.1620332    70.846352    70.846352     141.6927 
   91600    72620     299.4472     225.3737   -8079582.7    64819.373   -8014763.3    710618.36    1.1629594    70.827537    70.827537    141.65507 
   91700    72620    299.53973   -1288.9965   -8079991.3    64839.402   -8015151.9    710197.42    1.1636487     70.81355     70.81355     141.6271 
   91800    72620    298.96097    280.85316   -8079820.2    64714.122     -8015106    710364.55     1.163375    70.819104    70.819104    141.63821 
   91900    72620    299.80167   -127.03082   -8079789.6    64896.102   -8014893.5    710299.31    1.1634818    70.816936    70.816936    141.63387 
   92000    72620     297.5254   -331.76727     -8079753    64403.373   -8015349.6    710929.53    1.1624504    70.837874    70.837874    141.67575 
   92100    72620    300.05807    86.502324   -8079648.3    64951.604   -8014696.7    710856.84    1.1625693     70.83546     70.83546    141.67092 
   92200    72620    300.94593     1512.432   -8080067.7    65143.792   -8014923.9    710296.52    1.1634864    70.816843    70.816843    141.63369 
   92300    72620    299.50212    1066.0171   -8080071.6     64831.26   -8015240.3    709422.84    1.1649193    70.787796    70.787796    141.57559 
   92400    72620    300.49889    1124.1158   -8080172.1    65047.026   -8015125.1    709353.53    1.1650331    70.785491    70.785491    141.57098 
   92500    72620    298.46382   -943.37358   -8080408.2    64606.507   -8015801.7    709193.14    1.1652966    70.780155    70.780155    141.56031 
   92600    72620    299.48169     365.2261   -8080002.9    64826.838     -8015176    709933.98    1.1640805    70.804793    70.804793    141.60959 
   92700    72620    300.93693   -203.58029   -8080004.3    65141.844   -8014862.4    710720.96    1.1627915    70.830946    70.830946    141.66189 
   92800    72620    301.98624    834.42721   -8079915.4    65368.983   -8014546.4    710212.28    1.1636244    70.814044    70.814044    141.62809 
   92900    72620     299.4307    1971.4291   -8080004.2      64815.8   -8015188.4    710903.91    1.1624923    70.837023    70.837023    141.67405 
   93000    72620     301.1137   -324.99851   -8080096.5    65180.108   -8014916.4    711239.01    1.1619446    70.848152    70.848152     141.6963 
   93100    72620    298.26959    87.992163   -8079827.2    64564.464   -8015262.7     711120.5    1.1621382    70.844216    70.844216    141.68843 
   93200    72620    301.06357    222.94448   -8079949.7    65169.258   -8014780.4    711438.57    1.1616187    70.854777    70.854777    141.70955 
   93300    72620    299.14691    17.094906   -8080099.5    64754.371   -8015345.1     710871.8    1.1625448    70.835957    70.835957    141.67191 
   93400    72620    299.34742    783.87392   -8079943.7    64797.773     -8015146    710409.76    1.1633009    70.820606    70.820606    141.64121 
   93500    72620    300.02418   -24.723926   -8079785.8    64944.268   -8014841.6    709467.64    1.1648457    70.789286    70.789286    141.57857 
   93600    72620    301.21211    1053.7454   -8079756.8    65201.412   -8014555.3    710450.04     1.163235    70.821945    70.821945    141.64389 
   93700    72620    300.09628   -944.84869   -8080156.8    64959.874   -8015196.9    711531.32    1.1614672    70.857856    70.857856    141.71571 
   93800    72620    300.24446    1173.4777   -8080366.1    64991.951   -8015374.1    711271.51    1.1618915    70.849231    70.849231    141.69846 
   93900    72620    301.69146   -1093.2865   -8080091.7    65305.172   -8014786.5     711883.3     1.160893    70.869538    70.869538    141.73908 
   94000    72620    299.67421   -242.20929   -8079870.2    64868.512   -8015001.7    711186.83    1.1620299    70.846419    70.846419    141.69284 
   94100    72620    300.01045    887.71546   -8080354.1    64941.296   -8015412.8    711086.46    1.1621939    70.843086    70.843086    141.68617 
   94200    72620    299.02411    772.77118   -8079824.2    64727.788   -8015096.4    710354.43    1.1633915    70.818768    70.818768    141.63754 
   94300    72620    298.11027    81.354438   -8079731.7    64529.976   -8015201.7    709918.62    1.1641057    70.804282    70.804282    141.60856 
   94400    72620    300.62859    1046.8128   -8079829.4      65075.1   -8014754.3    710092.09    1.1638213    70.810049    70.810049     141.6201 
   94500    72620    300.50005    26.477536   -8079821.2    65047.275     -8014774    709790.35    1.1643161    70.800018    70.800018    141.60004 
   94600    72620    300.14016   -634.18956   -8080000.2    64969.374   -8015030.8     711179.4     1.162042    70.846172    70.846172    141.69234 
   94700    72620    298.69684    293.64558   -8080113.5    64656.946   -8015456.6    711330.26    1.1617955    70.851182    70.851182    141.70236 
   94800    72620    299.30632   -375.75663     -8080245    64788.876   -8015456.1    711659.55     1.161258    70.862113    70.862113    141.72423 
   94900    72620    299.75138   -649.76783   -8079620.3    64885.215   -8014735.1    711194.45    1.1620174    70.846672    70.846672    141.69334 
   95000    72620    299.73545   -652.54486   -8079875.6    64881.768   -8014993.8    710817.17    1.1626342    70.834142    70.834142    141.66828 
   95100    72620    299.86175   -1040.3249   -8080277.9    64909.107   -8015368.8    710700.23    1.1628255    70.830257    70.830257    141.66051 
   95200    72620     299.9109    1324.0307   -8079829.5    64919.746   -8014909.7    710090.62    1.1638237        70.81        70.81       141.62 
   95300    72620    301.66533   -1762.5321   -8079591.9    65299.516   -8014292.4    710559.78    1.1630553    70.825591    70.825591    141.65118 
   95400    72620    299.74384    705.50846     -8079984    64883.585   -8015100.4    710980.52     1.162367    70.839568    70.839568    141.67914 
   95500    72620    299.68093   -659.28815   -8079804.5    64869.967   -8014934.6    710869.42    1.1625487    70.835877    70.835877    141.67175 
   95600    72620    301.75282    786.99313   -8079901.6    65318.456   -8014583.1    711286.19    1.1618675    70.849718    70.849718    141.69944 
   95700    72620    299.07607   -1101.7702   -8079880.5    64739.037   -8015141.5    712050.93    1.1606197      70.8751      70.8751     141.7502 
   95800    72620    300.29933   -729.11776   -8079857.8    65003.828     -8014854    711630.38    1.1613056    70.861144    70.861144    141.72229 
   95900    72620     299.2257    768.06584   -8080060.8    64771.425   -8015289.4     710973.1    1.1623792    70.839321    70.839321    141.67864 
   96000    72620     299.5384   -720.28658   -8080023.9    64839.114   -8015184.8    710455.54     1.163226    70.822128    70.822128    141.64426 
   96100    72620    300.72189    949.79168   -8080115.1    65095.297   -8015019.8    709885.24    1.1641605    70.803172    70.803172    141.60634 
   96200    72620    299.14389     38.13814   -8080143.8    64753.718   -8015390.1    710109.11    1.1637934    70.810614    70.810614    141.62123 
   96300    72620     300.8872   -1939.5034   -8080211.8    65131.079   -8015080.7    710063.34    1.1638685    70.809093    70.809093    141.61819 
   96400    72620    300.34493   -243.50846   -8079986.7    65013.699     -8014973    709555.43    1.1647016    70.792206    70.792206    141.58441 
   96500    72620    298.84067    111.19162   -8080063.6     64688.08   -8015375.5    709927.01     1.164092    70.804561    70.804561    141.60912 
   96600    72620    300.99338    78.611375   -8080240.9    65154.064   -8015086.8    709985.82    1.1639955    70.806516    70.806516    141.61303 
   96700    72620    299.69459    255.47133   -8080318.5    64872.924   -8015445.5    710188.28    1.1636637    70.813246    70.813246    141.62649 
   96800    72620    297.48378    95.446562   -8080515.4    64394.364     -8016121     710481.3    1.1631838    70.822984    70.822984    141.64597 
   96900    72620    299.76606    334.50181   -8080180.3    64888.394   -8015291.9    709762.92    1.1643611    70.799106    70.799106    141.59821 
   97000    72620     300.0413   -208.13797   -8080278.9    64947.973   -8015330.9    709256.73    1.1651921    70.782271    70.782271    141.56454 
   97100    72620    299.78021    796.25982   -8080205.8    64891.457   -8015314.4    710199.81    1.1636448    70.813629    70.813629    141.62726 
   97200    72620     300.4073    676.88135   -8079832.3    65027.198   -8014805.1    709620.87    1.1645942    70.794382    70.794382    141.58876 
   97300    72620    299.37703    176.63201   -8080201.6    64804.184   -8015397.4    708848.14    1.1658637    70.768676    70.768676    141.53735 
   97400    72620    300.28444   -566.15024   -8080142.7    65000.605   -8015142.1    710696.44    1.1628317    70.830132    70.830132    141.66026 
   97500    72620    300.20002   -1004.8513   -8080134.8     64982.33   -8015152.5    711236.13    1.1619493    70.848056    70.848056    141.69611 
   97600    72620    298.75712   -1074.9645   -8080342.9    64669.995   -8015672.9    711038.35    1.1622725    70.841488    70.841488    141.68298 
   97700    72620    299.66131   -962.30965     -8080003    64865.719   -8015137.2    710678.64    1.1628608     70.82954     70.82954    141.65908 
   97800    72620    298.76531    456.29989   -8080183.1    64671.769   -8015511.3    710673.05    1.1628699    70.829355    70.829355    141.65871 
   97900    72620    298.97806    -35.54965   -8080302.3     64717.82   -8015584.5    710160.53    1.1637092    70.812324    70.812324    141.62465 
   98000    72620    298.44806    1480.9107     -8079767    64603.096   -8015163.9    710310.81     1.163463    70.817318    70.817318    141.63464 
   98100    72620    301.67268   -1499.7809   -8080036.8    65301.108   -8014735.7     711022.4    1.1622986    70.840958    70.840958    141.68192 
   98200    72620    299.22883    68.311523   -8080128.8    64772.103   -8015356.7    710757.44    1.1627319    70.832158    70.832158    141.66432 
   98300    72620    300.78154   -147.31181   -8080004.8    65108.209   -8014896.6    711268.58    1.1618963    70.849133    70.849133    141.69827 
   98400    72620    299.16448    1225.1684     -8079631    64758.174   -8014872.8    711461.66     1.161581    70.855544    70.855544    141.71109 
   98500    72620    298.95112   -45.722903     -8079995    64711.989     -8015283    711138.72    1.1621085    70.844822    70.844822    141.68964 
   98600    72620    299.39182   -291.66169   -8079574.3    64807.384   -8014766.9    711335.68    1.1617867    70.851361    70.851361    141.70272 
   98700    72620    298.99467    985.74983   -8080108.5    64721.416   -8015387.1    711368.69    1.1617328    70.852457    70.852457    141.70491 
   98800    72620    299.61105   -1194.9861   -8080178.7    64854.839   -8015323.8    710830.36    1.1626126     70.83458     70.83458    141.66916 
   98900    72620    300.76034    945.29032   -8080091.8    65103.619   -8014988.1    710032.73    1.1639186    70.808076    70.808076    141.61615 
   99000    72620    299.16691    402.41134   -8079894.8    64758.701   -8015136.1    710348.28    1.1634016    70.818563    70.818563    141.63713 
   99100    72620    300.20503   -389.70657   -8080462.8    64983.415   -8015479.4    709856.78    1.1642071    70.802226    70.802226    141.60445 
   99200    72620    299.65624    391.08961   -8080383.6    64864.622   -8015518.9    709316.95    1.1650932    70.784274    70.784274    141.56855 
   99300    72620    300.43593   -144.21968   -8080025.3    65033.397   -8014991.9    709635.41    1.1645703    70.794866    70.794866    141.58973 
   99400    72620     299.1455   -562.97131   -8080243.5    64754.066   -8015489.4    710729.55    1.1627775    70.831231    70.831231    141.66246 
   99500    72620    300.25164    532.19827   -8080213.2    64993.505   -8015219.7    710422.11    1.1632807    70.821017    70.821017    141.64203 
   99600    72620    301.21727   -307.21427   -8080112.8    65202.527   -8014910.3     710255.1    1.1635542    70.815467    70.815467    141.63093 
   99700    72620    299.01732    -638.7657     -8080234     64726.32   -8015507.7    709558.62    1.1646963    70.792312    70.792312    141.58462 
   99800    72620     300.7219    612.64434   -8080232.4    65095.297   -8015137.1    709702.24    1.1644606    70.797088    70.797088    141.59418 
   99900    72620    299.29157   -840.12462   -8080006.7    64785.684     -8015221    710232.25    1.1635917    70.814707    70.814707    141.62941 
  100000    72620     299.3481    839.86073   -8080622.1     64797.92   -8015824.1    709717.06    1.1644363    70.797581    70.797581    141.59516 
Loop time of 60645 on 28 procs for 100000 steps with 72620 atoms

Performance: 0.071 ns/day, 336.917 hours/ns, 1.649 timesteps/s
99.7% CPU use with 28 MPI tasks x no OpenMP threads

MPI task timing breakdown:
Section |  min time  |  avg time  |  max time  |%varavg| %total
---------------------------------------------------------------
Pair    | 33548      | 37718      | 39498      | 894.0 | 62.19
Neigh   | 2091.4     | 2418.2     | 2692.2     | 365.2 |  3.99
Comm    | 108.63     | 1885.4     | 6054.4     |3998.9 |  3.11
Output  | 1.485      | 1.4885     | 1.569      |   1.3 |  0.00
Modify  | 18343      | 18615      | 18944      | 131.2 | 30.70
Other   |            | 6.71       |            |       |  0.01

Nlocal:    2593.57 ave 2783 max 2328 min
Histogram: 2 0 3 2 4 4 1 5 3 4
Nghost:    17227.7 ave 18158 max 16289 min
Histogram: 3 1 2 7 3 1 2 2 5 2
Neighs:    2.24744e+06 ave 2.5613e+06 max 1.89825e+06 min
Histogram: 3 1 3 3 3 5 1 1 6 2

Total # of neighbors = 62928434
Ave neighs/atom = 866.544
Neighbor list builds = 10000
Dangerous builds not checked
write_restart	restart.npt_equi
unfix npt_equi
undump npt_dump


Please see the log.cite file for references relevant to this simulation

Total wall time: 16:51:23
