LAMMPS (2 Aug 2019)
# six cnt with 10% -OH functionalization
# lammps code to simulate tension test on RVE of nanocomposite with crack
# crack needs to be initiated first
# system is already equilibrated
# delete some atoms from a region to intiate a crack
# no cnt fix in MS equilibration
# load equilibrated structure

read_restart    restart.npt_equi
  restoring atom style charge from restart
  orthogonal box = (-0.561484 -0.442118 -2.22322) to (70.2361 70.3555 139.372)
  2 by 2 by 7 MPI processor grid
  pair style reax/c stores no restart info
  72620 atoms
  read_restart CPU = 0.284046 secs

# ReaxFF potential to define interatomic interactions

pair_style	reax/c control_file lgvdw yes
pair_coeff	* * ffield.reax.lg C C H O H C C C O O C C
Reading potential file ffield.reax.lg with DATE: 2012-01-06

neighbor	4 bin
neigh_modify	every 10 delay 0 check no

thermo 100
thermo_style custom step atoms temp press pe ke etotal vol density lx ly lz      #output variables

compute pnc_temp all temp
compute pnc_pe all pe/atom
compute pnc_stress all stress/atom pnc_temp pair bond
compute pnc_str all reduce sum c_pnc_stress[3]

variable tmpz equal "lz"
variable L0z equal ${tmpz}
variable L0z equal 141.595161182192
variable tmpx equal "lx"
variable L0x equal ${tmpx}
variable L0x equal 70.7975805910962
variable tmpy equal "ly"
variable L0y equal ${tmpy}
variable L0y equal 70.7975805910962

# define groups of atoms to delete

fix std all qeq/reax 1 0.0 10.0 1e-6 reax/c

region atoms_for_deletion block EDGE 20.0 EDGE EDGE 68.43589 70.93589              # NOTE: box size will change after equilibration
delete_atoms region atoms_for_deletion
Deleted 354 atoms, new total = 72266
reset_ids
Resetting atom IDs ...
Unused restart file global fix info:
  fix style: npt, fix ID: npt_equi
Neighbor list info ...
  update every 10 steps, delay 0 steps, check no
  max neighbors/atom: 2000, page size: 100000
  master list distance cutoff = 14
  ghost atom cutoff = 14
  binsize = 7, bins = 11 11 21
  2 neighbor lists, perpetual/occasional/extra = 2 0 0
  (1) pair reax/c, perpetual
      attributes: half, newton off, ghost
      pair build: half/bin/newtoff/ghost
      stencil: half/ghost/bin/3d/newtoff
      bin: standard
  (2) fix qeq/reax, perpetual, copy from (1)
      attributes: half, newton off, ghost
      pair build: copy
      stencil: none
      bin: none

reset_timestep 0
timestep 0.25
thermo_style custom step atoms temp press pe ke etotal vol density lx ly lz
fix 1 all npt temp 300.0 300.0 25.0 x 0.0 0.0 250.0 y 0.0 0.0 250.0 couple xy
fix 2 all deform 1 z erate 0.00001 units box
fix bd all reax/c/bonds 1000 bonds.reaxc
dump deform1 all custom 1000 dump.deform id type x y z

variable strainz equal "(lz-v_L0z)/v_L0z"
variable strainx equal "(lx-v_L0x)/v_L0x"
variable strainy equal "(ly-v_L0y)/v_L0y"
variable stressz equal "-pzz/10000"
variable p1 equal "v_stressz"
variable p2 equal "v_strainz"
variable p3 equal "v_strainx"
variable p4 equal "v_strainy"
fix 3 all print 100 "${p1} ${p2} ${p3} ${p4}" file pmma_pnc_crack.txt screen no

run 400000
Per MPI rank memory allocation (min/avg/max) = 425.8 | 460.5 | 491.4 Mbytes
Step Atoms Temp Press PotEng KinEng TotEng Volume Density Lx Ly Lz 
       0    72266    299.38878    707.23211   -8029307.6    64490.809   -7964816.8    709717.06    1.1585968    70.797581    70.797581    141.59516 
     100    72266     307.4799   -499.76976   -8031745.7    66233.703     -7965512    709806.59    1.1584507    70.793197    70.793197    141.63056 
     200    72266    305.80481   -178.22575   -8032567.2    65872.875   -7966694.3    709937.69    1.1582367    70.790889    70.790889    141.66596 
     300    72266    302.78869    428.26384   -8033120.8    65223.179   -7967897.6    709811.06    1.1584434    70.775733    70.775733    141.70136 
     400    72266    303.69973    385.00188   -8034370.3    65419.424   -7968950.8    709613.13    1.1587665    70.757027    70.757027    141.73676 
     500    72266    301.65734   -781.12079   -8034896.1    64979.475   -7969916.6    709320.97    1.1592438    70.733627    70.733627    141.77216 
     600    72266    301.25557   -509.86039   -8035618.6    64892.931   -7970725.7    709141.39    1.1595373    70.715845    70.715845    141.80755 
     700    72266    297.10249    37.080589   -8035225.8    63998.323   -7971227.5    709437.75    1.1590529    70.721794    70.721794    141.84295 
     800    72266    297.48607   -1180.8946   -8035309.4     64080.95   -7971228.4    710033.98    1.1580797    70.742679    70.742679    141.87835 
     900    72266    298.66246    335.73192     -8035316    64334.355   -7970981.6     709804.4    1.1584542    70.722419    70.722419    141.91375 
    1000    72266    302.37046   -547.23356   -8035803.3    65133.089   -7970670.2    709752.01    1.1585398     70.71099     70.71099    141.94915 
    1100    72266    300.75596    428.20355   -8035646.1    64785.311   -7970860.8    709814.55    1.1584377     70.70529     70.70529    141.98455 
    1200    72266    300.31044   -595.66708   -8036048.6    64689.343   -7971359.2    709804.23    1.1584545    70.695964    70.695964    142.01995 
    1300    72266    298.98959    3.7164755   -8036138.5    64404.821   -7971733.6    709787.95    1.1584811    70.686344    70.686344    142.05535 
    1400    72266    300.31278     141.1859   -8036444.6    64689.846   -7971754.7    709388.39    1.1591336    70.657642    70.657642    142.09074 
    1500    72266    299.77718    61.674353     -8036181    64574.474   -7971606.6    708735.02    1.1602022    70.616301    70.616301    142.12614 
    1600    72266    300.30874   -450.75148   -8036074.2    64688.976   -7971385.2    708564.06    1.1604821    70.598992    70.598992    142.16154 
    1700    72266    302.01407    470.14386   -8036367.6    65056.318   -7971311.3    708303.34    1.1609093    70.577215    70.577215    142.19694 
    1800    72266    300.71021    740.97759   -8036304.3    64775.456   -7971528.8    708146.28    1.1611667    70.560608    70.560608    142.23234 
    1900    72266    299.38651    698.43203   -8036372.5     64490.32   -7971882.1    708333.06    1.1608606    70.561133    70.561133    142.26774 
    2000    72266     298.4842     678.8967   -8036234.7    64295.955   -7971938.7    708811.08    1.1600777    70.576158    70.576158    142.30314 
    2100    72266    300.60378    1040.2083   -8036428.2     64752.53   -7971675.7    709103.83    1.1595988    70.581953    70.581953    142.33854 
    2200    72266    301.57495    748.99211   -8036104.7    64961.728     -7971143    709296.67    1.1592835    70.582773    70.582773    142.37393 
    2300    72266    301.21878   -113.38943   -8036115.4    64885.006   -7971230.4    709915.38    1.1582731    70.604774    70.604774    142.40933 
    2400    72266    300.01471    373.32376     -8036144    64625.641   -7971518.4    710429.43     1.157435    70.621555    70.621555    142.44473 
    2500    72266    299.59841    -591.4143   -8036269.2    64535.965   -7971733.3    710705.82    1.1569849    70.626516    70.626516    142.48013 
    2600    72266    299.82469    -433.4616   -8036458.9    64584.709   -7971874.2    710752.45     1.156909    70.620061    70.620061    142.51553 
    2700    72266    299.63641    303.02514     -8036467    64544.151   -7971922.9    710471.39    1.1573667    70.597329    70.597329    142.55093 
    2800    72266    298.95242   -1212.4442     -8036162    64396.813   -7971765.2    710038.74    1.1580719    70.567069    70.567069    142.58633 
    2900    72266    300.60193   -205.79472   -8036247.1    64752.132     -7971495    709744.73    1.1585516    70.543702    70.543702    142.62173 
    3000    72266    299.91481    185.95439   -8036149.4    64604.121   -7971545.3    709524.79    1.1589108    70.524019    70.524019    142.65712 
    3100    72266    298.94616    73.939136   -8036312.3    64395.466   -7971916.8    709573.65     1.158831    70.517698    70.517698    142.69252 
    3200    72266    297.98426   -1079.8768   -8036279.6    64188.265   -7972091.3    710008.53    1.1581212    70.530557    70.530557    142.72792 
    3300    72266    299.33176   -447.43216   -8036379.4    64478.527   -7971900.9    710154.97    1.1578824    70.529084    70.529084    142.76332 
    3400    72266    298.93756    141.34731   -8036069.6    64393.613   -7971675.9    710584.52    1.1571824    70.541666    70.541666    142.79872 
    3500    72266    299.53007   -410.99572   -8036223.3    64521.244     -7971702     710846.1    1.1567566    70.545905    70.545905    142.83412 
    3600    72266    299.16842   -749.96078   -8036215.9    64443.342   -7971772.5    710526.26    1.1572773    70.521295    70.521295    142.86952 
    3700    72266    299.24012   -1128.9357   -8036353.8    64458.787     -7971895    710193.11    1.1578202    70.496027    70.496027    142.90492 
    3800    72266    299.97624   -229.44189   -8036602.9    64617.353   -7971985.5    709988.64    1.1581536     70.47715     70.47715    142.94032 
    3900    72266    300.91695   -490.59055   -8036685.6     64819.99   -7971865.6    709490.61    1.1589666    70.443705    70.443705    142.97571 
    4000    72266    301.75056   -663.95009   -8036641.2    64999.556   -7971641.6    709183.31    1.1594688    70.419731    70.419731    143.01111 
    4100    72266    300.89705    378.56146   -8036342.6    64815.704   -7971526.9    708711.86    1.1602401    70.387609    70.387609    143.04651 
    4200    72266     299.8717   -727.05469   -8036423.3    64594.834   -7971828.4    708549.54    1.1605059    70.370842    70.370842    143.08191 
    4300    72266    300.20595   -175.55021   -8036882.8    64666.835     -7972216    708455.88    1.1606593    70.357488    70.357488    143.11731 
    4400    72266    298.97365   -2180.5273   -8036679.5    64401.387   -7972278.1     709184.4     1.159467     70.38495     70.38495    143.15271 
    4500    72266    299.49312   -1219.5107   -8036568.7    64513.285   -7972055.4    709910.43    1.1582812    70.412263    70.412263    143.18811 
    4600    72266    300.63046   -1166.7378   -8036407.1    64758.279   -7971648.9    710354.29    1.1575575    70.425567    70.425567    143.22351 
    4700    72266    300.40464   -22.772209   -8036373.3    64709.634   -7971663.6    710242.52    1.1577396    70.411326    70.411326     143.2589 
    4800    72266    300.36879   -638.82142   -8036612.4    64701.912   -7971910.5    710351.48     1.157562    70.408028    70.408028     143.2943 
    4900    72266    299.51798   -631.42071   -8036565.7    64518.641   -7972047.1    710306.98    1.1576346    70.397128    70.397128     143.3297 
    5000    72266    300.15423    732.43169   -8036708.9    64655.694   -7972053.2    710283.12    1.1576735    70.387254    70.387254     143.3651 
    5100    72266    301.03022   -473.13782   -8036814.9    64844.389   -7971970.5    710227.29    1.1577645      70.3758      70.3758     143.4005 
    5200    72266    300.99356    362.18494   -8036857.4    64836.494     -7972021    710095.72     1.157979    70.360598    70.360598     143.4359 
    5300    72266    300.31394    565.34298   -8036830.5    64690.096   -7972140.4    710432.24    1.1574305    70.368585    70.368585     143.4713 
    5400    72266    300.40631    693.52762   -8036922.2    64709.993   -7972212.2    710932.89    1.1566154    70.384693    70.384693     143.5067 
    5500    72266    300.43957   -505.53122     -8036673    64717.159   -7971955.8    711181.72    1.1562107    70.388329    70.388329    143.54209 
    5600    72266    301.39382    1150.6727   -8036477.6    64922.711   -7971554.9    711377.74    1.1558921     70.38935     70.38935    143.57749 
    5700    72266    299.74403    377.89875   -8036220.5    64567.333   -7971653.1    711941.56    1.1549767    70.408559    70.408559    143.61289 
    5800    72266    300.32869   -459.30531   -8036620.7    64693.275   -7971927.4    712651.03    1.1538269    70.434953    70.434953    143.64829 
    5900    72266     300.5357    431.67658   -8036782.4    64737.866   -7972044.6    712725.25    1.1537067    70.429943    70.429943    143.68369 
    6000    72266    299.65064   -6.5611109   -8036631.2    64547.216     -7972084    712478.81    1.1541058    70.409093    70.409093    143.71909 
    6100    72266    299.43154   -451.59113     -8036641    64500.021     -7972141    712315.52    1.1543704    70.392356    70.392356    143.75449 
    6200    72266    300.19949   -1276.6538   -8037005.1    64665.443   -7972339.7    712211.82    1.1545384    70.378567    70.378567    143.78989 
    6300    72266    298.64538    127.40648   -8037020.1    64330.675   -7972689.4    711693.34    1.1553795    70.344287    70.344287    143.82528 
    6400    72266    298.69351   -634.11017   -8036966.8    64341.042   -7972625.7    711146.74    1.1562676    70.308616    70.308616    143.86068 
    6500    72266    301.95345   -518.78405     -8037164    65043.261   -7972120.7    711168.67    1.1562319    70.301052    70.301052    143.89608 
    6600    72266    301.27472   -949.12292   -8036925.5    64897.058   -7972028.4    711380.73    1.1558872    70.302886    70.302886    143.93148 
    6700    72266    300.89129    237.51689   -8036998.1    64814.462   -7972183.6    711409.65    1.1558403    70.295671    70.295671    143.96688 
    6800    72266    298.48603   -967.75177   -8036759.4     64296.35     -7972463    711913.78    1.1550218     70.31193     70.31193    144.00228 
    6900    72266    300.67688   -466.53837   -8037255.4    64768.278   -7972487.1    712650.17    1.1538283     70.33964     70.33964    144.03768 
    7000    72266    300.39843   -209.70022   -8037070.9    64708.297   -7972362.6    713069.31    1.1531501    70.351678    70.351678    144.07308 
    7100    72266    299.48418   -1270.6108   -8036731.2     64511.36   -7972219.9    713552.48    1.1523692    70.366864    70.366864    144.10848 
    7200    72266    300.54791    223.60489   -8036956.6    64740.495   -7972216.1     713599.4    1.1522935    70.360537    70.360537    144.14387 
    7300    72266    298.75945    349.16669   -8036959.1    64355.246   -7972603.9    713662.56    1.1521915    70.355012    70.355012    144.17927 
    7400    72266    299.22731   -442.12328     -8037306    64456.027     -7972850     713526.8    1.1524107    70.339686    70.339686    144.21467 
    7500    72266     299.5536   -653.77293   -8037240.1    64526.314   -7972713.8    713419.32    1.1525843    70.325757    70.325757    144.25007 
    7600    72266    301.29802   -985.04281   -8037020.3    64902.076   -7972118.2    713519.48    1.1524225    70.322066    70.322066    144.28547 
    7700    72266    300.99298   -991.08624   -8036885.9    64836.368   -7972049.5    713804.27    1.1519627    70.327472    70.327472    144.32087 
    7800    72266     301.2975    681.87882   -8037194.1    64901.963   -7972292.1    713521.44    1.1524193    70.304916    70.304916    144.35627 
    7900    72266    300.18667    363.91298   -8037245.8    64662.681   -7972583.2    713563.01    1.1523522    70.298345    70.298345    144.39167 
    8000    72266    299.57487   -295.21364   -8037121.4    64530.896   -7972590.5    713438.16    1.1525539     70.28358     70.28358    144.42706 
    8100    72266    299.35178   -819.81564   -8036901.9    64482.839     -7972419    713857.82    1.1518763    70.295634    70.295634    144.46246 
    8200    72266    300.87991   -1003.9149   -8036682.2    64812.012   -7971870.2    714498.45    1.1508435    70.318554    70.318554    144.49786 
    8300    72266    301.08102    329.16485   -8036609.2    64855.333   -7971753.8    714772.94    1.1504016    70.323447    70.323447    144.53326 
    8400    72266    300.77083    404.98133   -8036882.1    64788.514   -7972093.6    714496.04    1.1508474    70.301216    70.301216    144.56866 
    8500    72266    299.16232   -330.54264   -8036779.6    64442.029   -7972337.6    714081.07    1.1515162    70.272195    70.272195    144.60406 
    8600    72266    300.85745   -158.64242   -8037177.1    64807.173   -7972369.9    713706.35    1.1521208    70.245157    70.245157    144.63946 
    8700    72266    298.72483   -811.77544   -8036575.3    64347.789   -7972227.5    713654.37    1.1522047    70.234005    70.234005    144.67486 
    8800    72266    301.03993   -626.65571   -8036581.4    64846.481   -7971734.9    713746.81    1.1520555    70.229962    70.229962    144.71025 
    8900    72266    303.17438    303.64381   -8036961.2    65306.258     -7971655    713763.82     1.152028    70.222211    70.222211    144.74565 
    9000    72266    299.66443   -1094.6179   -8036637.7    64550.187   -7972087.5    713678.17    1.1521663    70.209413    70.209413    144.78105 
    9100    72266    300.21822   -109.29292   -8036872.5    64669.479   -7972203.1    713363.81     1.152674    70.185369    70.185369    144.81645 
    9200    72266    299.19421   -381.47885   -8036924.8    64448.898   -7972475.9    713121.41    1.1530658    70.164868    70.164868    144.85185 
    9300    72266    299.43256    -698.8862   -8037155.4    64500.239   -7972655.2    712987.29    1.1532827    70.149699    70.149699    144.88725 
    9400    72266    298.48782   -886.62673   -8036928.9    64296.735   -7972632.2    712967.52    1.1533147    70.140158    70.140158    144.92265 
    9500    72266    301.51352   -610.95237   -8037004.4    64948.497   -7972055.9    712946.91     1.153348     70.13058     70.13058    144.95805 
    9600    72266    300.25718   -566.62544   -8036795.4    64677.869   -7972117.5    712907.08    1.1534125     70.12006     70.12006    144.99345 
    9700    72266    300.66432   -910.85745     -8037170    64765.572   -7972404.4    713158.45    1.1530059    70.123861    70.123861    145.02884 
    9800    72266     299.4051    -861.4159   -8037129.9    64494.324   -7972635.5     713843.7    1.1518991    70.148983    70.148983    145.06424 
    9900    72266     299.7363    455.54819   -8037257.6    64565.669   -7972691.9    714357.33    1.1510709    70.165655    70.165655    145.09964 
   10000    72266    299.12507    1278.5561   -8037023.6    64434.005   -7972589.6    714641.49    1.1506132     70.17105     70.17105    145.13504 
   10100    72266    300.25168   -333.12338   -8037133.8    64676.686   -7972457.1     714948.3    1.1501194    70.177553    70.177553    145.17044 
   10200    72266    300.97086    18.204309   -8037331.8    64831.603   -7972500.2    714967.04    1.1500893    70.169918    70.169918    145.20584 
   10300    72266     299.1532   -242.32209   -8036938.9    64440.064   -7972498.8    714864.91    1.1502536    70.156356    70.156356    145.24124 
   10400    72266    301.14241   -840.79686   -8037176.3    64868.556   -7972307.8    714875.06    1.1502372    70.148306    70.148306    145.27664 
   10500    72266     300.3498    541.30005   -8036807.1    64697.822   -7972109.3    714670.58    1.1505663    70.129729    70.129729    145.31203 
   10600    72266    301.73136     -362.955   -8036824.1    64995.422   -7971828.6    714346.38    1.1510885    70.105282    70.105282    145.34743 
   10700    72266    300.24365    498.21364   -8036755.2    64674.956   -7972080.2     714022.7    1.1516103    70.080864    70.080864    145.38283 
   10800    72266    300.37518   -810.58449   -8037205.5    64703.288   -7972502.3     714019.8     1.151615    70.072191    70.072191    145.41823 
   10900    72266    300.33725    -967.4565     -8037277    64695.118   -7972581.9    714152.91    1.1514004    70.070194    70.070194    145.45363 
   11000    72266    299.29244    476.96691   -8037196.2    64470.058   -7972726.2    714157.89    1.1513923    70.061914    70.061914    145.48903 
   11100    72266    299.87449    833.51528   -8037279.8    64595.435   -7972684.4    714408.35    1.1509887    70.065675    70.065675    145.52443 
   11200    72266    299.37832   -443.42576   -8036651.2    64488.556   -7972162.6    714892.69    1.1502089    70.080899    70.080899    145.55983 
   11300    72266    301.04402   -1281.6061   -8036736.7    64847.361   -7971889.3    715408.85     1.149379    70.097671    70.097671    145.59522 
   11400    72266    299.53021   -1394.0499   -8036519.8    64521.275   -7971998.5    715985.17    1.1484538    70.117377    70.117377    145.63062 
   11500    72266    299.84185   -2.9125848   -8036837.5    64588.406   -7972249.1    716427.73    1.1477444    70.130521    70.130521    145.66602 
   11600    72266    298.40943   -115.76166   -8036891.3    64279.849   -7972611.5    716609.13    1.1474539    70.130878    70.130878    145.70142 
   11700    72266    298.38143   -1161.3255   -8037023.8    64273.817     -7972750    716859.29    1.1470534    70.134599    70.134599    145.73682 
   11800    72266    299.14947    212.62028   -8036891.3    64439.259     -7972452    716582.21     1.147497    70.112529    70.112529    145.77222 
   11900    72266    300.91446     371.8364   -8036840.5    64819.453     -7972021    716383.98    1.1478145     70.09432     70.09432    145.80762 
   12000    72266    301.03453   -69.515425   -8036879.2    64845.318   -7972033.9    715996.48    1.1484357    70.066855    70.066855    145.84302 
   12100    72266    298.09122   -2175.1393   -8036655.7    64211.305   -7972444.4     715696.7    1.1489167    70.043685    70.043685    145.87841 
   12200    72266     298.8477   -930.77596   -8036940.9    64374.256   -7972566.7    715190.78    1.1497295    70.010431    70.010431    145.91381 
   12300    72266    299.78402    285.33098   -8037016.2    64575.949   -7972440.3       714866    1.1502518    69.986044    69.986044    145.94921 
   12400    72266    301.58441   -840.03308   -8037141.9    64963.767   -7972178.1    715194.14    1.1497241    69.993617    69.993617    145.98461 
   12500    72266    301.63629    543.24495   -8036810.2    64974.941   -7971835.2    715595.23    1.1490797    70.004753    70.004753    146.02001 
   12600    72266    301.39309    -117.3083   -8036672.9    64922.554   -7971750.4    715670.63    1.1489586    69.999957    69.999957    146.05541 
   12700    72266     300.2622   -604.59502     -8036856    64678.951     -7972177    715731.15    1.1488614    69.994435    69.994435    146.09081 
   12800    72266    298.45831   -1068.8779   -8036686.8     64290.38   -7972396.4    715994.43     1.148439    69.998828    69.998828    146.12621 
   12900    72266    300.74235   -582.22868   -8037229.6    64782.379   -7972447.2     716343.4    1.1478795    70.007405    70.007405    146.16161 
   13000    72266    300.05532   -115.64987   -8037234.4    64634.388     -7972600    716313.59    1.1479273    69.997472    69.997472      146.197 
   13100    72266    297.53773   -947.36479   -8037122.1    64092.077   -7973030.1    716468.53     1.147679    69.996569    69.996569     146.2324 
   13200    72266    298.53314   -1095.7717   -8037379.4    64306.498   -7973072.9    716573.63    1.1475107    69.993231    69.993231     146.2678 
   13300    72266    299.53136   -2402.3277   -8037000.7    64521.522   -7972479.1    716967.86    1.1468797    70.004012    70.004012     146.3032 
   13400    72266     300.3015    1290.0172   -8036888.5    64687.416   -7972201.1    717541.28    1.1459632     70.02353     70.02353     146.3386 
   13500    72266    300.41488    77.292719   -8036835.5     64711.84   -7972123.6    717854.52    1.1454632    70.030343    70.030343      146.374 
   13600    72266    300.22066   -368.51199   -8036966.8    64670.002   -7972296.8    717727.54    1.1456658    70.015683    70.015683     146.4094 
   13700    72266    298.41325   -14.544743   -8036924.6    64280.672     -7972644    717329.36    1.1463018    69.987798    69.987798     146.4448 
   13800    72266    298.27797    353.43253   -8036815.9    64251.532   -7972564.3    717197.31    1.1465128      69.9729      69.9729    146.48019 
   13900    72266    300.70413   -513.00506   -8036966.6    64774.147   -7972192.5    717294.32    1.1463578    69.969178    69.969178    146.51559 
   14000    72266    301.28009   -676.49029   -8036943.4    64898.213   -7972045.1    717403.95    1.1461826    69.966073    69.966073    146.55099 
   14100    72266     301.7472   -1389.7778   -8037154.3    64998.832   -7972155.4    717947.37     1.145315    69.984116    69.984116    146.58639 
   14200    72266    298.65398    -99.49949   -8036749.7    64332.529   -7972417.2    717869.51    1.1454393    69.971872    69.971872    146.62179 
   14300    72266    299.60634    33.560576   -8037013.6    64537.675   -7972475.9    717709.99    1.1456938    69.955653    69.955653    146.65719 
   14400    72266    300.26304   -409.02938     -8036991    64679.132   -7972311.9    717938.45    1.1453293    69.958344    69.958344    146.69259 
   14500    72266    301.52965   -469.68213   -8036828.4     64951.97   -7971876.4    717790.57    1.1455652      69.9427      69.9427    146.72799 
   14600    72266    300.56704   -135.84579   -8036456.6    64744.616     -7971712    717533.07    1.1459763     69.92172     69.92172    146.76338 
   14700    72266    301.05655   -870.51731   -8036914.9    64850.062   -7972064.9     717534.3    1.1459744    69.913349    69.913349    146.79878 
   14800    72266    300.54779   -880.48191   -8037164.4    64740.469   -7972423.9    717087.69    1.1466881    69.883162    69.883162    146.83418 
   14900    72266    298.53559    903.07249   -8036723.8    64307.025   -7972416.8    716801.41    1.1471461    69.860791    69.860791    146.86958 
   15000    72266    301.28366   -108.86287     -8037026    64898.983     -7972127    716961.03    1.1468907     69.86015     69.86015    146.90498 
   15100    72266    301.37152   -1413.2042   -8036793.8    64917.907   -7971875.9    717108.44    1.1466549    69.858915    69.858915    146.94038 
   15200    72266    300.98531   -522.40907   -8036946.5    64834.716   -7972111.8    717551.59    1.1459467    69.872082    69.872082    146.97578 
   15300    72266    301.05499   -947.05008   -8037397.3    64849.724   -7972547.6    718376.65    1.1446306    69.903823    69.903823    147.01118 
   15400    72266    298.48346   -723.03852   -8036871.2    64295.797   -7972575.4    719087.62    1.1434989    69.929987    69.929987    147.04657 
   15500    72266    300.31993    549.76029   -8036928.1    64691.386   -7972236.7    719455.17    1.1429147    69.939439    69.939439    147.08197 
   15600    72266    300.04778   -948.57546   -8036795.4    64632.764   -7972162.7    719613.36    1.1426635    69.938712    69.938712    147.11737 
   15700    72266    300.96339   -2152.6597   -8036864.4    64829.993   -7972034.4    719350.67    1.1430808    69.917534    69.917534    147.15277 
   15800    72266    301.11838   -979.76517   -8036525.3     64863.38   -7971661.9    718919.91    1.1437657    69.888192    69.888192    147.18817 
   15900    72266    300.90965     12.08409     -8036606    64818.417   -7971787.6    718719.91     1.144084    69.870068    69.870068    147.22357 
   16000    72266    299.28505   -639.62576   -8036741.7    64468.466   -7972273.3    718712.11    1.1440964    69.861291    69.861291    147.25897 
   16100    72266    299.63509    -235.1601   -8036811.4    64543.866   -7972267.6    718347.65    1.1446768    69.835182    69.835182    147.29437 
   16200    72266    299.74803   -651.86332   -8036789.5    64568.194   -7972221.3    718025.01    1.1451912    69.811109    69.811109    147.32977 
   16300    72266    300.93925   -170.09233   -8036889.5    64824.794   -7972064.7    717848.84    1.1454722     69.79416     69.79416    147.36516 
   16400    72266    301.10844   -742.77212   -8036545.1    64861.239   -7971683.8    717754.35     1.145623    69.781186    69.781186    147.40056 
   16500    72266    300.46784   -604.24613   -8036308.9    64723.248   -7971585.7    717593.27    1.1458802    69.764979    69.764979    147.43596 
   16600    72266     299.0091    -684.8354     -8036469    64409.023   -7972059.9    717679.62    1.1457423    69.760802    69.760802    147.47136 
   16700    72266    300.31644   -2032.2444   -8036961.3    64690.635   -7972270.6    717853.92    1.1454641    69.760901    69.760901    147.50676 
   16800    72266    300.19404    541.62549   -8037110.9    64664.269   -7972446.7    717845.79    1.1454771    69.752137    69.752137    147.54216 
   16900    72266    298.99601   -428.83891   -8036937.9    64406.204   -7972531.7    717844.07    1.1454798    69.743687    69.743687    147.57756 
   17000    72266    300.58517    457.50057   -8036794.1    64748.521   -7972045.5    717971.94    1.1452758    69.741534    69.741534    147.61296 
   17100    72266    301.80416   -460.53351   -8036874.3    65011.103   -7971863.2    718294.58    1.1447614     69.74884     69.74884    147.64835 
   17200    72266    300.10615   -945.36068   -8036729.3    64645.337     -7972084    718400.31    1.1445929    69.745613    69.745613    147.68375 
   17300    72266    298.46913    415.89378   -8036526.2    64292.709   -7972233.5    718682.33    1.1441438    69.750943    69.750943    147.71915 
   17400    72266     299.2894   -1542.0496   -8036792.5    64469.401   -7972323.1    719395.94    1.1430088    69.777203    69.777203    147.75455 
   17500    72266     299.1975   -1159.8994   -8036946.2    64449.606   -7972496.6    719875.41    1.1422475    69.792092    69.792092    147.78995 
   17600    72266    300.62086   -258.33827   -8036990.2    64756.209     -7972234    719838.19    1.1423066    69.781932    69.781932    147.82535 
   17700    72266    301.93616   -770.49879   -8036898.2    65039.536   -7971858.7    719551.54    1.1427617    69.759684    69.759684    147.86075 
   17800    72266    299.74326   -1602.5596   -8036572.8    64567.167   -7972005.7    719630.93    1.1426356    69.755183    69.755183    147.89615 
   17900    72266    299.97836    -1220.849   -8036865.4    64617.811   -7972247.6    720232.35    1.1416815    69.775975    69.775975    147.93154 
   18000    72266    298.62981   -1533.5547   -8036762.2    64327.322   -7972434.8    720632.76    1.1410471    69.787019    69.787019    147.96694 
   18100    72266    300.69455    1.3561831   -8036599.6    64772.084   -7971827.5    720322.06    1.1415393    69.763629    69.763629    148.00234 
   18200    72266    301.45995   -308.28916   -8036532.9    64936.958   -7971595.9     719796.1    1.1423734    69.729816    69.729816    148.03774 
   18300    72266    300.54542    -110.6649   -8036633.6    64739.959   -7971893.6    719404.29    1.1429956    69.702502    69.702502    148.07314 
   18400    72266    301.68148   -240.74089   -8037230.7    64984.676     -7972246    719257.75    1.1432284    69.687073    69.687073    148.10854 
   18500    72266    299.35163   -206.35795   -8036969.1    64482.807   -7972486.3    719398.86    1.1430042    69.685582    69.685582    148.14394 
   18600    72266    298.98021    102.70017   -8036832.7    64402.801   -7972429.9    719583.41    1.1427111    69.686194    69.686194    148.17934 
   18700    72266    299.57956   -495.80916   -8036600.2    64531.905   -7972068.3    719624.13    1.1426464    69.679844    69.679844    148.21473 
   18800    72266    301.37208   -613.94345   -8036609.1    64918.028   -7971691.1    719696.63    1.1425313    69.675034    69.675034    148.25013 
   18900    72266    300.97525   -1097.9534   -8036645.8    64832.548   -7971813.2    719916.43    1.1421825    69.677354    69.677354    148.28553 
   19000    72266    299.55243    682.13299   -8036527.2    64526.061   -7972001.2    719847.42     1.142292      69.6657      69.6657    148.32093 
   19100    72266    300.38624   -1562.9768   -8036856.7    64705.671     -7972151    720064.82    1.1419471    69.667906    69.667906    148.35633 
   19200    72266    299.31896    260.14474     -8036917    64475.769   -7972441.2    719879.81    1.1422406    69.650646    69.650646    148.39173 
   19300    72266    299.14674   -428.37616   -8037121.2    64438.673   -7972682.5    719652.22    1.1426018     69.63133     69.63133    148.42713 
   19400    72266    298.64335   -1482.9865   -8036692.4    64330.238   -7972362.1     719630.8    1.1426358    69.621992    69.621992    148.46253 
   19500    72266    301.07594    587.95901   -8036768.8    64854.237   -7971914.6    719985.54    1.1420728     69.63085     69.63085    148.49793 
   19600    72266    299.99201   -786.25185   -8036526.7    64620.751   -7971905.9    720610.55    1.1410823    69.652764    69.652764    148.53332 
   19700    72266    299.65045    17.388822   -8036722.4    64547.176   -7972175.3    720433.36    1.1413629    69.635903    69.635903    148.56872 
   19800    72266    299.17699    -536.4683   -8036845.5    64445.189   -7972400.3     720308.8    1.1415603    69.621589    69.621589    148.60412 
   19900    72266    299.33031   -58.346541   -8036979.1    64478.215   -7972500.9    720508.81    1.1412434    69.622963    69.622963    148.63952 
   20000    72266    300.58402   -237.77236   -8036710.9    64748.275   -7971962.6    720922.85     1.140588    69.634673    69.634673    148.67492 
   20100    72266    300.01643   -987.84896   -8036383.6     64626.01   -7971757.6    721654.67    1.1394313    69.661715    69.661715    148.71032 
   20200    72266    298.84574   -1725.9006   -8036283.5    64373.835   -7971909.7    722149.42    1.1386507    69.677298    69.677298    148.74572 
   20300    72266    300.03695   -1250.4133   -8036575.1    64630.431   -7971944.7    722358.34    1.1383214    69.679085    69.679085    148.78112 
   20400    72266    300.11651   -530.68993   -8036653.1    64647.569   -7972005.5    722179.08    1.1386039    69.662152    69.662152    148.81651 
   20500    72266    301.11587   -300.67743   -8036960.6    64862.838   -7972097.7    722252.32    1.1384884      69.6574      69.6574    148.85191 
   20600    72266    300.19039   -1187.8044     -8037001    64663.484   -7972337.5    722746.38    1.1377102    69.672937    69.672937    148.88731 
   20700    72266    299.40564   -285.43519   -8036920.3    64494.441   -7972425.9    723156.49     1.137065    69.684418    69.684418    148.92271 
   20800    72266    299.11846   -711.97704   -8036330.8     64432.58   -7971898.2    723087.38    1.1371737    69.672808    69.672808    148.95811 
   20900    72266     300.1917   -122.10353   -8036247.8    64663.765   -7971584.1    722644.23     1.137871     69.64318     69.64318    148.99351 
   21000    72266    301.00434   -1184.1447   -8036529.5    64838.815   -7971690.6    722358.08    1.1383218    69.621121    69.621121    149.02891 
   21100    72266    300.21503   -1738.6702   -8036663.9    64668.791   -7971995.1     722125.9    1.1386878    69.601665    69.601665    149.06431 
   21200    72266    299.48359   -928.16364   -8036660.8    64511.233   -7972149.5     722136.2    1.1386715    69.593899    69.593899     149.0997 
   21300    72266    299.86615    72.961576   -8036843.5    64593.639   -7972249.8    722378.66    1.1382893     69.59732     69.59732     149.1351 
   21400    72266    299.17687   -507.92392   -8036854.2    64445.162   -7972409.1     722548.1    1.1380224    69.597222    69.597222     149.1705 
   21500    72266    300.81597   -279.81822   -8037066.4    64798.237   -7972268.2    722689.24    1.1378001    69.595762    69.595762     149.2059 
   21600    72266    301.42814    157.58266   -8036772.7    64930.104   -7971842.6    723117.54    1.1371262    69.608125    69.608125     149.2413 
   21700    72266    301.30312   -970.57761   -8036525.9    64903.174   -7971622.7    723451.19    1.1366018    69.615927    69.615927     149.2767 
   21800    72266     301.3445   -719.79176   -8036671.2    64912.088   -7971759.1    723437.98    1.1366225    69.607038    69.607038     149.3121 
   21900    72266    300.17548   -763.83205   -8036721.5    64660.271   -7972061.2    723397.05    1.1366868     69.59682     69.59682     149.3475 
   22000    72266    298.82189   -1785.2819     -8036769    64368.697   -7972400.3    723105.18    1.1371457    69.574533    69.574533     149.3829 
   22100    72266    298.49997   -913.73197   -8036918.9    64299.353   -7972619.5     723056.9    1.1372216    69.563968    69.563968    149.41829 
   22200    72266    299.55914   -1834.8032   -8036676.6    64527.507   -7972149.1    723380.84    1.1367123    69.571309    69.571309    149.45369 
   22300    72266    300.46574   -1388.7523   -8036527.9    64722.796   -7971805.1    723869.92    1.1359443    69.586583    69.586583    149.48909 
   22400    72266    300.53149   -593.13213   -8036421.9    64736.958   -7971684.9    724027.94    1.1356964     69.58594     69.58594    149.52449 
   22500    72266    299.89868   -1607.6647   -8036351.5    64600.646   -7971750.9    723740.76     1.136147    69.563904    69.563904    149.55989 
   22600    72266    298.25433   -223.50903   -8036195.3     64246.44   -7971948.9     723781.9    1.1360825     69.55765     69.55765    149.59529 
   22700    72266    300.32008   -1484.8461   -8036635.8    64691.418   -7971944.4    724029.58    1.1356938    69.561321    69.561321    149.63069 
   22800    72266    300.90716   -570.37323   -8036935.7    64817.882   -7972117.8    723912.45    1.1358776    69.547468    69.547468    149.66609 
   22900    72266    298.28348   -1749.1152   -8036558.5    64252.718   -7972305.8    723945.39    1.1358259    69.540827    69.540827    149.70148 
   23000    72266    300.68684   -310.93124   -8036736.6    64770.423   -7971966.2    723822.72    1.1360184    69.526715    69.526715    149.73688 
   23100    72266    300.45559   -58.089499   -8036396.1     64720.61   -7971675.4    724007.21    1.1357289    69.527357    69.527357    149.77228 
   23200    72266    300.04699   -1711.6308   -8036423.9    64632.593   -7971791.3    724229.98    1.1353796    69.529836    69.529836    149.80768 
   23300    72266    300.32364   -1845.0662   -8036642.4    64692.186   -7971950.2    724378.21    1.1351472    69.528737    69.528737    149.84308 
   23400    72266    299.67187    1118.0661   -8036458.6    64551.789   -7971906.8     723832.4    1.1360032     69.49433     69.49433    149.87848 
   23500    72266    300.36564   -277.21412   -8036545.1    64701.234   -7971843.9    723289.37    1.1368561    69.460055    69.460055    149.91388 
   23600    72266    299.06064   -1084.6118     -8036299    64420.125   -7971878.9    723431.09    1.1366334     69.45866     69.45866    149.94928 
   23700    72266    299.72363   -898.19764   -8036589.2    64562.939   -7972026.3    723738.01    1.1361513    69.465194    69.465194    149.98467 
   23800    72266    298.06438   -1061.8788   -8036638.7    64205.522   -7972433.2    724190.61    1.1354413    69.478712    69.478712    150.02007 
   23900    72266    298.41044   -1660.3893   -8036610.9    64280.066   -7972330.8    724484.39    1.1349809    69.484606    69.484606    150.05547 
   24000    72266    299.14146    438.12881   -8036300.8    64437.535   -7971863.3    724639.83    1.1347374    69.483864    69.483864    150.09087 
   24100    72266    300.90104    -603.7446     -8036560    64816.563   -7971743.5     724939.1     1.134269    69.490017    69.490017    150.12627 
   24200    72266     300.8223   -929.29544   -8036680.4    64799.601   -7971880.8    725312.07    1.1336857    69.499697    69.499697    150.16167 
   24300    72266    299.61153   -352.78154   -8036718.1    64538.793   -7972179.3    725392.65    1.1335598    69.495367    69.495367    150.19707 
   24400    72266     300.6208   -721.85731   -8037077.5    64756.198   -7972321.3    725453.34    1.1334649    69.490085    69.490085    150.23247 
   24500    72266    299.79383    238.62746   -8036456.7    64578.061   -7971878.7    725337.12    1.1336465    69.476334    69.476334    150.26786 
   24600    72266    300.58031   -1739.8344   -8036240.3    64747.475   -7971492.8    725160.57    1.1339225    69.459697    69.459697    150.30326 
   24700    72266     300.5047    278.82382   -8036205.8    64731.188   -7971474.6    724874.42    1.1343702    69.437815    69.437815    150.33866 
   24800    72266    299.73403   -2898.1493   -8036402.9    64565.179   -7971837.8    724728.96    1.1345978    69.422675    69.422675    150.37406 
   24900    72266    298.89583   -408.94269   -8036454.8    64384.625   -7972070.1    724448.25    1.1350375    69.401061    69.401061    150.40946 
   25000    72266    299.33274   -243.50463   -8036392.1    64478.738   -7971913.4    724446.72    1.1350399    69.392822    69.392822    150.44486 
   25100    72266    300.52498    -563.8929   -8036445.8    64735.557   -7971710.2    724541.19    1.1348919    69.389184    69.389184    150.48026 
   25200    72266    299.05445    -1740.856     -8036048    64418.792   -7971629.2    724425.05    1.1350738    69.375462    69.375462    150.51566 
   25300    72266    301.94694   -987.95886   -8036708.5    65041.858   -7971666.7     724056.9     1.135651    69.349677    69.349677    150.55106 
   25400    72266    298.96211   -1028.6983   -8036770.8    64398.901   -7972371.9    723736.43    1.1361538    69.326179    69.326179    150.58645 
   25500    72266    299.46339   -1546.5828   -8036878.3    64506.881   -7972371.4    724069.65     1.135631    69.333988    69.333988    150.62185 
   25600    72266    299.47599   -2358.9178   -8036522.4    64509.596   -7972012.8    724310.46    1.1352534    69.337369    69.337369    150.65725 
   25700    72266    300.35759   -597.26019   -8036411.8    64699.499   -7971712.3    724513.95    1.1349345    69.338963    69.338963    150.69265 
   25800    72266    301.24532   -945.53555   -8036447.2    64890.723   -7971556.5    724739.96    1.1345806    69.341633    69.341633    150.72805 
   25900    72266    301.03026   -279.00482   -8036371.8    64844.397   -7971527.4    724927.88    1.1342865     69.34248     69.34248    150.76345 
   26000    72266    300.20785    151.76369   -8036539.7    64667.245   -7971872.4    724930.23    1.1342828    69.334453    69.334453    150.79885 
   26100    72266    299.03193   -1941.4739   -8036512.4    64413.941   -7972098.5    725233.13    1.1338091    69.340799    69.340799    150.83425 
   26200    72266    299.41427     981.9174   -8036304.4      64496.3   -7971808.1    725215.96    1.1338359    69.331843    69.331843    150.86964 
   26300    72266    301.30623   -757.93295   -8036450.9    64903.845   -7971547.1    725717.62    1.1330522    69.347683    69.347683    150.90504 
   26400    72266    299.31096   -1326.0468     -8036059    64474.047     -7971585    726300.86    1.1321423    69.367409    69.367409    150.94044 
   26500    72266    300.09915   -1655.1401   -8036160.2    64643.828   -7971516.3    726817.58    1.1313374    69.383944    69.383944    150.97584 
   26600    72266    299.32064   -2150.0206   -8035978.8    64476.131   -7971502.7    727016.75    1.1310275    69.385316    69.385316    151.01124 
   26700    72266    300.81477   -1010.1837   -8036278.9    64797.981     -7971481    727125.19    1.1308588    69.382359    69.382359    151.04664 
   26800    72266    299.33308    663.86658   -8036068.3    64478.812   -7971589.5    727574.57    1.1301603    69.395664    69.395664    151.08204 
   26900    72266    298.66274   -117.57565     -8036184    64334.414   -7971849.6    727714.48     1.129943    69.394207    69.394207    151.11744 
   27000    72266    297.79587   -1082.2443   -8036615.7    64147.684     -7972468    727262.38    1.1306455    69.364524    69.364524    151.15283 
   27100    72266    298.12754   -1265.9482   -8036652.4    64219.128   -7972433.3    726864.46    1.1312644    69.337427    69.337427    151.18823 
   27200    72266    299.50976   -1081.9287   -8036554.8    64516.869     -7972038    726515.11    1.1318084    69.312648    69.312648    151.22363 
   27300    72266    298.52291   -1445.4957   -8036040.7    64304.295   -7971736.4     726007.7    1.1325994    69.280332    69.280332    151.25903 
   27400    72266    300.04857   -2276.9117   -8036117.3    64632.933   -7971484.3    726148.73    1.1323795    69.278954    69.278954    151.29443 
   27500    72266    300.36214    308.71868   -8036244.2    64700.479   -7971543.7    726448.28    1.1319125    69.285137    69.285137    151.32983 
   27600    72266    298.31552   -1326.4766     -8036241    64259.621   -7971981.4     726393.7    1.1319976    69.274432    69.274432    151.36523 
   27700    72266    298.92454   -677.06135   -8036482.7    64390.808   -7972091.9    726557.25    1.1317428    69.274131    69.274131    151.40063 
   27800    72266    300.93469   -1111.3719   -8036435.8     64823.81     -7971612    726962.49    1.1311119    69.285348    69.285348    151.43602 
   27900    72266    300.02581   -241.65894   -8035904.7    64628.031   -7971276.6    726756.07    1.1314332    69.267415    69.267415    151.47142 
   28000    72266    299.61699    1161.7814   -8035883.4    64539.967   -7971343.5     726585.6    1.1316986    69.251199    69.251199    151.50682 
   28100    72266    300.43942   -1284.2802   -8036315.8    64717.126   -7971598.7    727001.47    1.1310512    69.262924    69.262924    151.54222 
   28200    72266    299.26091   -415.49172   -8036354.1    64463.265   -7971890.8    726934.22    1.1311559    69.251632    69.251632    151.57762 
   28300    72266    298.33678   -1592.1672     -8036123    64264.199   -7971858.8    726916.88    1.1311829    69.242722    69.242722    151.61302 
   28400    72266    298.83302   -901.95382   -8035856.4    64371.095   -7971485.3    727279.46    1.1306189    69.251904    69.251904    151.64842 
   28500    72266    299.97289   -623.44341   -8035835.2    64616.631   -7971218.5    727712.02    1.1299469    69.264412    69.264412    151.68382 
   28600    72266    299.76692   -80.935679   -8035902.9    64572.265   -7971330.7    727906.97    1.1296442    69.265607    69.265607    151.71922 
   28700    72266    299.70848    -1171.607   -8036131.8    64559.676   -7971572.1    728333.21    1.1289831    69.277802    69.277802    151.75461 
   28800    72266    299.51437   -302.68401   -8036323.8    64517.862   -7971805.9    728575.57    1.1286076    69.281248    69.281248    151.79001 
   28900    72266    299.60609    594.06748   -8036303.4    64537.621   -7971765.8    728784.62    1.1282839    69.283109    69.283109    151.82541 
   29000    72266    300.70819   -1555.4918   -8036007.2    64775.021   -7971232.2    728995.12    1.1279581    69.285037    69.285037    151.86081 
   29100    72266    300.27648   -574.04503   -8035824.8    64682.028   -7971142.7    728894.42    1.1281139    69.272178    69.272178    151.89621 
   29200    72266    300.95687    -1387.889   -8036135.3     64828.59   -7971306.8    729100.48    1.1277951    69.273898    69.273898    151.93161 
   29300    72266    301.74525   -604.48496   -8036496.5    64998.413   -7971498.1       729326    1.1274463    69.276541    69.276541    151.96701 
   29400    72266    299.16952    137.60347   -8036105.7     64443.58   -7971662.1    729234.26    1.1275882    69.264117    69.264117    152.00241 
   29500    72266    299.68367   -673.90668   -8036192.6    64554.331   -7971638.3    729323.88    1.1274496    69.260309    69.260309     152.0378 
   29600    72266    300.23462   -867.35584   -8036233.7    64673.012   -7971560.7    729091.65    1.1278087    69.241221    69.241221     152.0732 
   29700    72266    301.51437   -934.28374     -8036310    64948.679   -7971361.3    728558.06    1.1286347    69.207824    69.207824     152.1086 
   29800    72266    299.40499   -1866.6955   -8035813.2      64494.3   -7971318.9    728247.43    1.1291161    69.185019    69.185019      152.144 
   29900    72266    300.00013   -562.89635     -8036044    64622.498   -7971421.5    728155.38    1.1292589      69.1726      69.1726     152.1794 
   30000    72266    299.83534   -1057.0927   -8036389.6    64587.003   -7971802.6    727906.99    1.1296442    69.152758    69.152758     152.2148 
   30100    72266    298.61825   -927.71068   -8036356.5    64324.831   -7972031.7    727653.91    1.1300371    69.132697    69.132697     152.2502 
   30200    72266    298.75687   -574.02646   -8036363.7    64354.691     -7972009    727813.93    1.1297886    69.132262    69.132262     152.2856 
   30300    72266    300.55947   -488.92429   -8036258.1    64742.986   -7971515.1    727748.12    1.1298908    69.121103    69.121103    152.32099 
   30400    72266    300.41307     588.3333   -8036024.7     64711.45   -7971313.3    727136.67    1.1308409    69.084033    69.084033    152.35639 
   30500    72266    299.83204   -851.23886   -8036017.2    64586.292   -7971430.9    726833.64    1.1313124    69.061613    69.061613    152.39179 
   30600    72266    299.44093   -2105.4713   -8036170.8    64502.042   -7971668.7    727127.06    1.1308559    69.067531    69.067531    152.42719 
   30700    72266    298.70204    -448.8599   -8036106.8    64342.879   -7971763.9    727545.96    1.1302048    69.079402    69.079402    152.46259 
   30800    72266    299.34056   -1070.2871   -8036217.9    64480.422   -7971737.5    727990.46    1.1295147    69.092481    69.092481    152.49799 
   30900    72266    300.06466    -1329.581   -8036281.7      64636.4   -7971645.3    728555.71    1.1286384    69.111278    69.111278    152.53339 
   31000    72266    300.26507   -1437.2033   -8036303.2    64679.569   -7971623.6    729107.24    1.1277846    69.129412    69.129412    152.56879 
   31100    72266    300.01719   -8.5006379   -8036254.8    64626.173   -7971628.6    729548.11    1.1271031    69.142288    69.142288    152.60418 
   31200    72266     299.5884   -1318.8834   -8036089.2     64533.81   -7971555.4    729863.23    1.1266164      69.1492      69.1492    152.63958 
   31300    72266    300.31369   -1955.2116   -8036255.4    64690.043   -7971565.3    729786.98    1.1267342    69.137571    69.137571    152.67498 
   31400    72266    297.96215    -1010.743   -8035874.5    64183.502     -7971691    729792.58    1.1267255    69.129822    69.129822    152.71038 
   31500    72266    299.05106   -874.23397   -8036064.7    64418.062   -7971646.6    729928.37    1.1265159    69.128242    69.128242    152.74578 
   31600    72266    301.16936   -1821.5401   -8036081.3    64874.361     -7971207    730445.29    1.1257187    69.144704    69.144704    152.78118 
   31700    72266    300.59545   -697.40719   -8035840.5    64750.737   -7971089.7    730762.18    1.1252305     69.15169     69.15169    152.81658 
   31800    72266    299.58995   -604.03871   -8035736.6    64534.143   -7971202.5    730854.49    1.1250884    69.148049    69.148049    152.85198 
   31900    72266    298.81394   -1445.1684   -8036108.1    64366.984   -7971741.1    730800.91    1.1251709    69.137509    69.137509    152.88738 
   32000    72266    298.30021   -1858.4795   -8036148.4    64256.323   -7971892.1    730846.06    1.1251014    69.131642    69.131642    152.92277 
   32100    72266    299.20173   -1717.0602   -8035982.4    64450.517   -7971531.9    730637.69    1.1254223    69.113787    69.113787    152.95817 
   32200    72266    301.25149    112.49467     -8036187    64892.053   -7971294.9    730397.66    1.1257921    69.094439    69.094439    152.99357 
   32300    72266    300.76203   -822.86467   -8036122.4    64786.618   -7971335.8    730183.78    1.1261219    69.076331    69.076331    153.02897 
   32400    72266    299.47068    -515.6823     -8036044    64508.452   -7971535.6    730179.11    1.1261291    69.068122    69.068122    153.06437 
   32500    72266    298.02542   -1297.3368   -8036033.9    64197.131   -7971836.7    730524.04    1.1255973    69.076447    69.076447    153.09977 
   32600    72266    298.10872    -469.2573   -8035908.6    64215.074   -7971693.6    730861.96    1.1250769    69.084435    69.084435    153.13517 
   32700    72266    300.36199   -823.11947   -8035900.9    64700.448   -7971200.5    731567.74    1.1239915    69.109797    69.109797    153.17057 
   32800    72266    300.23076   -296.20075   -8035836.5     64672.18   -7971164.3     731854.1    1.1235517    69.115335    69.115335    153.20596 
   32900    72266    301.05669   -935.18671   -8036112.6    64850.092   -7971262.5    731918.21    1.1234533    69.110379    69.110379    153.24136 
   33000    72266    298.80055   -372.87666     -8035997      64364.1   -7971632.9    731813.15    1.1236146    69.097438    69.097438    153.27676 
   33100    72266    299.29743   -960.64929   -8036311.7    64471.133   -7971840.6    731310.31    1.1243871     69.06572     69.06572    153.31216 
   33200    72266    299.03902   -1431.5619   -8035832.3    64415.468   -7971416.8    730626.24    1.1254399    69.025442    69.025442    153.34756 
   33300    72266    301.17904    341.03435   -8035935.2    64876.446   -7971058.8    730201.15    1.1260951    68.997396    68.997396    153.38296 
   33400    72266    301.67232   -938.03098     -8036231    64982.704   -7971248.3    729885.57     1.126582    68.974526    68.974526    153.41836 
   33500    72266    300.16472   -526.37067   -8036219.3    64657.953   -7971561.3    729888.58    1.1265773    68.966712    68.966712    153.45376 
   33600    72266    298.87297    210.71445   -8036003.2    64379.699   -7971623.5    729571.71    1.1270666    68.943789    68.943789    153.48915 
   33700    72266    300.11115    -783.4065   -8035967.2    64646.413   -7971320.8    729531.24    1.1271291    68.933928    68.933928    153.52455 
   33800    72266    300.56199   -450.88382   -8035696.2    64743.529   -7970952.7    729868.38    1.1266085    68.941907    68.941907    153.55995 
   33900    72266    300.09506   -362.46373   -8035834.4    64642.948   -7971191.5    730122.82    1.1262159    68.945976    68.945976    153.59535 
   34000    72266    298.97977   -979.91385   -8036069.1    64402.705   -7971666.4    730345.75    1.1258721    68.948556    68.948556    153.63075 
   34100    72266    299.26896   -923.26506     -8036161    64464.999     -7971696    730336.74     1.125886    68.940189    68.940189    153.66615 
   34200    72266    300.19308   -1202.9961   -8036101.4    64664.062   -7971437.4    730273.98    1.1259828    68.929288    68.929288    153.70155 
   34300    72266    301.82472   -1205.2496   -8036259.1    65015.531   -7971243.5    730541.87    1.1255699    68.933992    68.933992    153.73695 
   34400    72266    298.99476   -833.53425     -8036107    64405.935     -7971701    730701.66    1.1253237    68.933595    68.933595    153.77235 
   34500    72266    298.01151   -2784.1493   -8036073.2    64194.135   -7971879.1    730773.27    1.1252135    68.929039    68.929039    153.80774 
   34600    72266    300.12931   -1555.3618   -8036249.8    64650.325   -7971599.5    730686.64    1.1253469    68.917024    68.917024    153.84314 
   34700    72266     300.9458   -1331.2469   -8036184.3    64826.205     -7971358    730705.46    1.1253179    68.909984    68.909984    153.87854 
   34800    72266    299.30011   -1062.4098   -8035788.1    64471.709   -7971316.4    730356.96    1.1258548    68.885626    68.885626    153.91394 
   34900    72266    299.96194   -1514.6713   -8035871.1    64614.273   -7971256.8    730345.55    1.1258724    68.877168    68.877168    153.94934 
   35000    72266    299.71526    361.08365   -8036027.8    64561.137   -7971466.7    730310.25    1.1259268    68.867586    68.867586    153.98474 
   35100    72266    298.00385    211.68398   -8036186.6    64192.484   -7971994.1    730857.45    1.1250838    68.885464    68.885464    154.02014 
   35200    72266    298.75595   -1417.0654   -8036149.5    64354.493     -7971795    731222.26    1.1245225    68.894737    68.894737    154.05554 
   35300    72266    300.60699   -1061.1041   -8036124.5    64753.223   -7971371.3    731338.74    1.1243434     68.89231     68.89231    154.09093 
   35400    72266    301.15753   -1193.4365   -8036152.8    64871.813     -7971281    730871.94    1.1250616     68.86241     68.86241    154.12633 
   35500    72266    299.98222   -1562.4443   -8035964.9    64618.642   -7971346.2    730636.85    1.1254235    68.843429    68.843429    154.16173 
   35600    72266    299.74879   -242.57806   -8036073.2    64568.359   -7971504.8    730713.45    1.1253056    68.839135    68.839135    154.19713 
   35700    72266    298.14865   -1302.7002   -8036049.6    64223.676     -7971826    731087.81    1.1247294    68.848864    68.848864    154.23253 
   35800    72266    297.77551   -400.14142   -8035763.2    64143.297   -7971619.9    731408.51    1.1242362    68.856062    68.856062    154.26793 
   35900    72266    300.91229   -1772.1071   -8035967.4    64818.986   -7971148.4    732009.13    1.1233137    68.876426    68.876426    154.30333 
   36000    72266    299.95292    -1080.469   -8035774.8     64612.33   -7971162.5    732549.08    1.1224858    68.893922    68.893922    154.33873 
   36100    72266    300.13144    -2501.466   -8035988.9    64650.785   -7971338.1    732725.87    1.1222149    68.894334    68.894334    154.37412 
   36200    72266     299.4899   -2492.9299   -8036196.6    64512.592     -7971684    732849.76    1.1220252     68.89226     68.89226    154.40952 
   36300    72266    299.76948   -2317.3611   -8036403.9    64572.816   -7971831.1    732903.76    1.1219425    68.886903    68.886903    154.44492 
   36400    72266    299.52698     -2162.13   -8035913.6    64520.579     -7971393    733023.61    1.1217591    68.884641    68.884641    154.48032 
   36500    72266    300.31537    1334.1161   -8035677.7    64690.406   -7970987.3    733292.89    1.1213472      68.8894      68.8894    154.51572 
   36600    72266    298.95055   -53.174301   -8035440.5    64396.411   -7971044.1    734023.25    1.1202314    68.915805    68.915805    154.55112 
   36700    72266    299.84619   -1497.9918     -8035799    64589.341   -7971209.7    734413.23    1.1196366    68.926217    68.926217    154.58652 
   36800    72266     299.9438   -2039.5643   -8036076.6    64610.366   -7971466.3    734417.27    1.1196304    68.918515    68.918515    154.62192 
   36900    72266    298.55034   -1106.1838   -8036038.3    64310.204   -7971728.1    734264.21    1.1198638    68.903447    68.903447    154.65731 
   37000    72266    299.33556   -819.66036   -8036375.3    64479.345     -7971896     733443.4    1.1211171    68.857044    68.857044    154.69271 
   37100    72266    298.51663   -919.86921   -8036139.5    64302.942   -7971836.6    733038.91    1.1217357    68.830179    68.830179    154.72811 
   37200    72266    299.63954   -1449.3894   -8035843.2    64544.826   -7971298.4    732939.65    1.1218876    68.817647    68.817647    154.76351 
   37300    72266    300.65118   -1322.4203   -8035758.4    64762.742   -7970995.7    732630.76    1.1223606    68.795277    68.795277    154.79891 
   37400    72266    301.08176    1224.1471   -8035832.2    64855.491   -7970976.7    732238.49    1.1229619    68.768995    68.768995    154.83431 
   37500    72266    299.73483    -1808.646   -8035952.7    64565.352   -7971387.3    732105.51    1.1231659    68.754891    68.754891    154.86971 
   37600    72266    299.74841     515.1113     -8036108    64568.276   -7971539.7    731723.24    1.1237526    68.729084    68.729084    154.90511 
   37700    72266    300.16791   -981.60987   -8035996.3     64658.64   -7971337.7    731645.73    1.1238717    68.717593    68.717593    154.94051 
   37800    72266    299.52402   -503.98773   -8035660.4    64519.941   -7971140.5    731567.52    1.1239918    68.706072    68.706072     154.9759 
   37900    72266    300.72472   -1258.8775   -8036031.7    64778.582   -7971253.1    731607.75      1.12393    68.700115    68.700115     155.0113 
   38000    72266     299.0473    -337.5455   -8035823.2    64417.251   -7971405.9    732370.37    1.1227597    68.728065    68.728065     155.0467 
   38100    72266     300.3559   -734.68296   -8036027.6    64699.136   -7971328.5    733542.74    1.1209652    68.775202    68.775202     155.0821 
   38200    72266    299.39755   -1488.3181   -8035719.7    64492.698     -7971227    733933.83    1.1203679    68.785684    68.785684     155.1175 
   38300    72266    300.17006   -907.95516     -8035586    64659.104   -7970926.9    733892.12    1.1204316    68.775882    68.775882     155.1529 
   38400    72266    300.68062   -1364.9883   -8035421.3    64769.082   -7970652.2    734086.19    1.1201354    68.777129    68.777129     155.1883 
   38500    72266    301.24803   -437.97916     -8035260    64891.307   -7970368.7    734494.29     1.119513    68.788399    68.788399     155.2237 
   38600    72266     300.3088   -435.61828   -8035480.4    64688.989   -7970791.4    734825.81    1.1190079    68.796077    68.796077    155.25909 
   38700    72266    299.31752   -396.72615   -8035628.8    64475.459   -7971153.4    734472.37    1.1195464    68.771691    68.771691    155.29449 
   38800    72266    299.58768   -2193.4085   -8035866.6    64533.654     -7971333    733902.83    1.1204152    68.737188    68.737188    155.32989 
   38900    72266    299.78049   -320.14105   -8036073.7    64575.188   -7971498.5    733345.56    1.1212666    68.703258    68.703258    155.36529 
   39000    72266    299.87723   -750.39516   -8036104.4    64596.025   -7971508.4    733001.21    1.1217934    68.679302    68.679302    155.40069 
   39100    72266    299.55069   -1487.5781   -8035666.4    64525.686   -7971140.7    732827.89    1.1220587    68.663362    68.663362    155.43609 
   39200    72266    299.23737   -769.13449   -8035324.4    64458.194   -7970866.2    732594.45    1.1224162    68.644609    68.644609    155.47149 
   39300    72266    301.44559   -712.06536   -8035943.8    64933.864   -7971009.9    732465.49    1.1226139    68.630754    68.630754    155.50689 
   39400    72266    299.48905   -1124.8966   -8035893.1    64512.408   -7971380.7     732661.3    1.1223138    68.632116    68.632116    155.54228 
   39500    72266    300.61295   -1069.3657   -8036170.4    64754.507   -7971415.9     732976.5    1.1218312    68.639068    68.639068    155.57768 
   39600    72266    300.08257    488.94473   -8036036.7    64640.257   -7971396.5    732898.43    1.1219507    68.627605    68.627605    155.61308 
   39700    72266    299.02169    527.23069   -8035616.7    64411.735     -7971205    732945.39    1.1218788    68.621999    68.621999    155.64848 
   39800    72266    301.78899    624.34154   -8035697.6    65007.834   -7970689.8    733501.97    1.1210276    68.640244    68.640244    155.68388 
   39900    72266    300.66575   -1063.8952   -8035552.3    64765.879   -7970786.5    733785.82    1.1205939     68.64572     68.64572    155.71928 
   40000    72266    300.46928   -1206.2079   -8035769.2    64723.558   -7971045.6    733934.49    1.1203669    68.644872    68.644872    155.75468 
   40100    72266    300.15997    -1741.738   -8035840.5     64656.93   -7971183.5    734042.63    1.1202019    68.642129    68.642129    155.79008 
   40200    72266    299.45184   -406.92857   -8035826.3    64504.393   -7971321.9    733902.28    1.1204161     68.62777     68.62777    155.82547 
   40300    72266    299.73977   -413.70804   -8035873.1    64566.415   -7971306.7     734163.7    1.1200171    68.632197    68.632197    155.86087 
   40400    72266     299.3154   -709.15829   -8035697.2    64475.004   -7971222.2    734547.67    1.1194317    68.642347    68.642347    155.89627 
   40500    72266    299.34135   -1324.7578   -8035622.9    64480.592   -7971142.4    734604.21    1.1193455    68.637197    68.637197    155.93167 
   40600    72266     300.5062   -141.95983   -8035943.3    64731.511   -7971211.8    734662.55    1.1192566    68.632133    68.632133    155.96707 
   40700    72266    298.90358    285.01838   -8035836.9    64386.293   -7971450.6    735075.94    1.1186272     68.64365     68.64365    156.00247 
   40800    72266     299.7658    -235.7484   -8035993.4    64572.023   -7971421.4    735164.09     1.118493    68.639979    68.639979    156.03787 
   40900    72266     300.1958   -592.23437   -8035829.3    64664.648   -7971164.6    735085.91     1.118612    68.628545    68.628545    156.07327 
   41000    72266    300.51906    100.53349   -8035524.9    64734.281   -7970790.7    735286.59    1.1183067    68.630129    68.630129    156.10867 
   41100    72266    302.38175   -1077.6698   -8035925.5    65135.519     -7970790    735695.61     1.117685    68.641433    68.641433    156.14406 
   41200    72266    299.89267   -1239.0862   -8035709.1    64599.352   -7971109.8    735445.55     1.118065    68.621989    68.621989    156.17946 
   41300    72266    300.24553   -621.21761   -8035803.8     64675.36   -7971128.5    735191.36    1.1184515    68.602355    68.602355    156.21486 
   41400    72266    299.47572   -440.24616     -8035695    64509.538   -7971185.5    734954.64    1.1188118    68.583539    68.583539    156.25026 
   41500    72266     300.4011    -2070.626     -8035816    64708.872   -7971107.2    734663.46    1.1192552    68.562186    68.562186    156.28566 
   41600    72266    299.22687   -219.67116   -8035601.1    64455.932   -7971145.1    734157.13    1.1200271    68.530795    68.530795    156.32106 
   41700    72266    298.53577   -933.20871   -8035718.8    64307.065   -7971411.8    734191.86    1.1199742    68.524657    68.524657    156.35646 
   41800    72266    299.36364    -1239.236   -8035933.3    64485.395   -7971447.9    734298.02    1.1198122    68.521855    68.521855    156.39186 
   41900    72266    301.19737   -478.83441   -8036050.1    64880.395   -7971169.7    734078.55     1.120147    68.503862    68.503862    156.42725 
   42000    72266    301.12512    -1058.954   -8035708.1    64864.832   -7970843.3    734412.64    1.1196375    68.511697    68.511697    156.46265 
   42100    72266    301.77201   -300.05632   -8035691.9    65004.178   -7970687.8    734894.65    1.1189031    68.526425    68.526425    156.49805 
   42200    72266    298.16091   -1126.0194   -8035452.8    64226.316   -7971226.5    735117.75    1.1185636    68.529076    68.529076    156.53345 
   42300    72266    299.55126    294.33996   -8035948.1    64525.808   -7971422.3    734943.36     1.118829      68.5132      68.5132    156.56885 
   42400    72266    299.58645   -3459.4773   -8035918.2    64533.388   -7971384.8    735222.58    1.1184041    68.518469    68.518469    156.60425 
   42500    72266    300.63533    512.65108   -8035832.2    64759.327   -7971072.9     735316.3    1.1182615    68.515092    68.515092    156.63965 
   42600    72266    301.83901   -653.71256   -8035749.2    65018.609   -7970730.6    735817.21    1.1175002    68.530682    68.530682    156.67505 
   42700    72266    300.39806   -2353.3001   -8035653.4    64708.217   -7970945.2    735716.12    1.1176538    68.518234    68.518234    156.71044 
   42800    72266    299.21953    95.552466   -8035890.9    64454.353   -7971436.6    735702.04    1.1176752    68.509842    68.509842    156.74584 
   42900    72266    300.32028   -1197.3496   -8036053.5    64691.462     -7971362     735848.7    1.1174524    68.508934    68.508934    156.78124 
   43000    72266      300.947   -22.088018   -8036088.4    64826.464   -7971261.9     735905.9    1.1173656    68.503864    68.503864    156.81664 
   43100    72266    300.45168   -1554.0891     -8035867    64719.766   -7971147.3    736204.32    1.1169127     68.51002     68.51002    156.85204 
   43200    72266    300.95107   -2760.0543   -8035731.5    64827.339   -7970904.2    736626.73    1.1162722     68.52194     68.52194    156.88744 
   43300    72266     300.0574   -370.85025   -8035555.9    64634.836   -7970921.1    736652.19    1.1162336    68.515395    68.515395    156.92284 
   43400    72266    300.44009   -1673.9964   -8035840.8     64717.27   -7971123.6    736599.92    1.1163128    68.505238    68.505238    156.95824 
   43500    72266    299.97409   -930.05827   -8036086.7     64616.89   -7971469.8    735935.29     1.117321    68.466605    68.466605    156.99363 
   43600    72266    299.94591   -398.83971   -8036310.4    64610.821   -7971699.6    735646.62    1.1177594     68.44546     68.44546    157.02903 
   43700    72266    300.01647   -1217.0405   -8036097.9     64626.02   -7971471.9    736073.37    1.1171114    68.457593    68.457593    157.06443 
   43800    72266    300.13708    414.14819     -8035644    64651.999     -7970992    736051.27    1.1171449    68.448853    68.448853    157.09983 
   43900    72266    301.24956    113.15367   -8035828.4    64891.638   -7970936.7    735944.75    1.1173066     68.43619     68.43619    157.13523 
   44000    72266    300.43287    836.73263   -8035964.9    64715.714   -7971249.2     736366.6    1.1166665    68.448092    68.448092    157.17063 
   44100    72266     299.3044    -63.98636   -8035800.8    64472.634   -7971328.1    737195.19    1.1154114     68.47888     68.47888    157.20603 
   44200    72266    300.59809   -2008.8065   -8035698.3    64751.304     -7970947    737391.44    1.1151145    68.480285    68.480285    157.24143 
   44300    72266    301.60313   -1877.0186   -8035840.9      64967.8   -7970873.1    737324.17    1.1152163    68.469454    68.469454    157.27683 
   44400    72266     300.8364   -1369.7686   -8035848.3    64802.639   -7971045.7     737353.6    1.1151718    68.463117    68.463117    157.31222 
   44500    72266    299.23181   -1439.0155   -8035554.7    64456.997   -7971097.7    737644.63    1.1147318    68.468923    68.468923    157.34762 
   44600    72266    300.73768   -1326.6472   -8035721.8    64781.375   -7970940.4    737978.77    1.1142271    68.476727    68.476727    157.38302 
   44700    72266    300.68066    271.56008   -8035594.2    64769.092   -7970825.1    737924.04    1.1143097    68.466489    68.466489    157.41842 
   44800    72266    300.05061   -295.86414   -8035429.9    64633.374   -7970796.5    737791.57    1.1145098    68.452647    68.452647    157.45382 
   44900    72266    300.44532   -816.48508   -8035522.6    64718.397   -7970804.2    737690.51    1.1146625    68.440265    68.440265    157.48922 
   45000    72266    300.16921    200.82345   -8035717.9    64658.922     -7971059    737524.25    1.1149137    68.424863    68.424863    157.52462 
   45100    72266    297.76868   -760.03129   -8035469.8    64141.828     -7971328    737881.33    1.1143742    68.433737    68.433737    157.56002 
   45200    72266    298.98456   -499.71622   -8035559.8    64403.737   -7971156.1    738139.61    1.1139843    68.438025    68.438025    157.59541 
   45300    72266    299.37152   -1383.6453   -8035174.3    64487.091   -7970687.2    738255.12      1.11381    68.435694    68.435694    157.63081 
   45400    72266     300.9142   -335.07687   -8035495.5    64819.397   -7970676.2    738450.56    1.1135152    68.437068    68.437068    157.66621 
   45500    72266    301.38747   -485.57515   -8035817.9    64921.344   -7970896.5    738874.26    1.1128767    68.449015    68.449015    157.70161 
   45600    72266     299.4972   -1385.0191     -8035752    64514.165   -7971237.9    738563.23    1.1133453    68.426928    68.426928    157.73701 
   45700    72266    300.08047   -1248.5474   -8035869.2    64639.805   -7971229.4    738792.03    1.1130005    68.429848    68.429848    157.77241 
   45800    72266    299.80925   -585.19659   -8035746.9    64581.382   -7971165.5     739134.9    1.1124842    68.438048    68.438048    157.80781 
   45900    72266    299.77118   -1220.1126   -8035408.3    64573.182   -7970835.1    738742.06    1.1130758    68.412186    68.412186    157.84321 
   46000    72266    301.98132    162.36037   -8035379.8    65049.265   -7970330.5    738072.09    1.1140862     68.37349     68.37349     157.8786 
   46100    72266    301.57166   -445.08369   -8035383.5    64961.019   -7970422.5    737671.57    1.1146911    68.347274    68.347274      157.914 
   46200    72266    300.89276   -1920.8216   -8035601.6    64814.779   -7970786.9    737105.35    1.1155473    68.313382    68.313382     157.9494 
   46300    72266    299.94218    93.255089   -8035630.4    64610.017   -7971020.4    736858.63    1.1159209    68.294296    68.294296     157.9848 
   46400    72266    299.74247   -319.11457   -8035606.5    64566.997   -7971039.5    736959.11    1.1157687    68.291302    68.291302     158.0202 
   46500    72266    298.89734   -1231.3632   -8035492.8     64384.95   -7971107.8    737192.77    1.1154151    68.294478    68.294478     158.0556 
   46600    72266    299.65538   -299.96692   -8035915.7    64548.238   -7971367.5    737453.92    1.1150201    68.298926    68.298926      158.091 
   46700    72266    299.15411   -1257.5575   -8036167.7    64440.259   -7971727.4    737699.66    1.1146486    68.302658    68.302658     158.1264 
   46800    72266    299.79894    168.02783   -8036176.9    64579.161   -7971597.8    738076.71    1.1140792    68.312465    68.312465     158.1618 
   46900    72266    299.82172   -1043.3363   -8035718.8    64584.068   -7971134.7    738791.93    1.1130007    68.337909    68.337909    158.19719 
   47000    72266    299.47675   -226.13979   -8035423.4     64509.76   -7970913.7    739413.28    1.1120654    68.358992    68.358992    158.23259 
   47100    72266    300.40265   -508.89004   -8035580.2    64709.205     -7970871    739889.55    1.1113495    68.373357    68.373357    158.26799 
   47200    72266    299.07047   -26.716025   -8035493.5    64422.244   -7971071.3    739634.04    1.1117335    68.353906    68.353906    158.30339 
   47300    72266    300.11035    131.14361   -8035970.3    64646.242     -7971324    739458.64    1.1119972     68.33816     68.33816    158.33879 
   47400    72266    299.40939    189.03056   -8036086.6    64495.248   -7971591.4     739123.5    1.1125014    68.315037    68.315037    158.37419 
   47500    72266    300.19337   -163.85232     -8036042    64664.125   -7971377.9    739274.89    1.1122736    68.314398    68.314398    158.40959 
   47600    72266    299.18838   -180.14893   -8035313.2    64447.641   -7970865.6    739777.17    1.1115184    68.329967    68.329967    158.44499 
   47700    72266    301.06845   -1717.5154   -8035587.5    64852.624   -7970734.8    740280.61    1.1107625    68.345579    68.345579    158.48038 
   47800    72266    298.85793   -1116.5533   -8035293.8    64376.459   -7970917.3    740057.85    1.1110968    68.327665    68.327665    158.51578 
   47900    72266    299.45388   -84.471758   -8035610.5    64504.832   -7971105.6    740136.43    1.1109788    68.323664    68.323664    158.55118 
   48000    72266    299.79467   -1279.5634   -8035954.5    64578.241   -7971376.2    739905.48    1.1113256    68.305379    68.305379    158.58658 
   48100    72266    299.03294   -2506.0232   -8035934.3    64414.159   -7971520.1     739484.4    1.1119584     68.27832     68.27832    158.62198 
   48200    72266    299.36697   -499.78967   -8035625.8    64486.112   -7971139.7    739573.12     1.111825    68.274798    68.274798    158.65738 
   48300    72266      299.213   -1613.1003   -8035251.7    64452.945   -7970798.7    739954.38    1.1112522    68.284777    68.284777    158.69278 
   48400    72266    300.97666   -370.31179   -8035543.3    64832.852   -7970710.5    740206.11    1.1108743    68.288775    68.288775    158.72818 
   48500    72266    300.48371    -169.8594   -8035528.8    64726.667   -7970802.1    740088.65    1.1110506    68.275743    68.275743    158.76357 
   48600    72266    301.28695   -1168.1472   -8035844.6    64899.692   -7970944.9    739779.02    1.1115156    68.253851    68.253851    158.79897 
   48700    72266    298.36143   -1038.1982   -8035785.7    64269.509   -7971516.2    739280.48    1.1122651    68.223245    68.223245    158.83437 
   48800    72266    297.81935   -1855.3649   -8035720.6    64152.741   -7971567.8     739074.2    1.1125756    68.206126    68.206126    158.86977 
   48900    72266    299.59001   -1649.8035   -8035768.9    64534.155   -7971234.7    738819.66    1.1129589    68.186784    68.186784    158.90517 
   49000    72266    300.83319   -1095.3517   -8035720.6    64801.948   -7970918.7    738359.51    1.1136525    68.157956    68.157956    158.94057 
   49100    72266    299.84768    76.353585   -8035469.5     64589.66   -7970879.9    738284.11    1.1137662    68.146887    68.146887    158.97597 
   49200    72266    299.89638   -1628.0729   -8035705.2    64600.152   -7971105.1    738637.88    1.1132328    68.155625    68.155625    159.01137 
   49300    72266    297.46941   -571.85178   -8035577.1    64077.363   -7971499.7    738742.52    1.1130751    68.152867    68.152867    159.04676 
   49400    72266    298.97312    -91.99959   -8035675.3    64401.273   -7971274.1    738647.41    1.1132184    68.140897    68.140897    159.08216 
   49500    72266    300.30488   -160.07404   -8035727.6    64688.144   -7971039.5    738706.84    1.1131289    68.136058    68.136058    159.11756 
   49600    72266     299.9348   -1384.0242   -8035559.9    64608.426   -7970951.4    739078.84    1.1125686    68.145632    68.145632    159.15296 
   49700    72266     299.6286   -291.25008   -8035505.4    64542.469     -7970963    739725.56    1.1115959     68.16786     68.16786    159.18836 
   49800    72266    299.29156   -643.73842   -8035645.1    64469.867   -7971175.3    740294.43    1.1107417    68.186485    68.186485    159.22376 
   49900    72266    299.15336   -1077.9866   -8035767.8    64440.099   -7971327.7    740517.72    1.1104068    68.189188    68.189188    159.25916 
   50000    72266    300.62437   -974.58672   -8035726.4    64756.966   -7970969.4    740730.98    1.1100871    68.191428    68.191428    159.29456 
   50100    72266    299.87062    -1842.564   -8035294.9    64594.603   -7970700.3       740885    1.1098563    68.190941    68.190941    159.32996 
   50200    72266    300.70042   -643.86918   -8035430.8    64773.348   -7970657.5    740936.16    1.1097797    68.185722    68.185722    159.36535 
   50300    72266    301.02234   -953.68266   -8035600.4    64842.691   -7970757.7    740858.16    1.1098965    68.174561    68.174561    159.40075 
   50400    72266    298.42847   -1575.0607   -8035612.5     64283.95   -7971328.6    740567.35    1.1103324    68.153612    68.153612    159.43615 
   50500    72266    299.80294   -524.59766   -8035937.5    64580.022   -7971357.5    740125.74    1.1109949    68.125726    68.125726    159.47155 
   50600    72266    298.82493     -478.464     -8035517    64369.351   -7971147.7     740043.1     1.111119    68.114364    68.114364    159.50695 
   50700    72266    300.67897   -408.86306   -8035533.1    64768.727   -7970764.4    740090.02    1.1110485    68.108966    68.108966    159.54235 
   50800    72266    300.77749   -1321.5302   -8035429.3     64789.95   -7970639.4    740139.36    1.1109744    68.103681    68.103681    159.57775 
   50900    72266    298.66103   -1251.1125   -8035505.5    64334.046   -7971171.4    739806.43    1.1114744    68.080812    68.080812    159.61315 
   51000    72266    298.03476    435.70519   -8035598.5    64199.143   -7971399.4    739808.37    1.1114715    68.073352    68.073352    159.64854 
   51100    72266    300.70728   -2093.9461     -8035909    64774.826   -7971134.2    740197.75    1.1108868    68.083717    68.083717    159.68394 
   51200    72266    300.22292   -155.03857   -8035495.1    64670.491   -7970824.6    740300.23     1.110733    68.080884    68.080884    159.71934 
   51300    72266    300.04347   -1264.3417   -8035275.3    64631.836   -7970643.4    740158.71    1.1109454    68.066834    68.066834    159.75474 
   51400    72266     299.6631   -1266.5476   -8035261.2    64549.901   -7970711.3    740243.67    1.1108179      68.0632      68.0632    159.79014 
[...]
  308800    72266    300.33137    533.66221   -8038733.8    64693.851   -7974039.9    1081057.3   0.76062194    65.639958    65.639958    250.90663 
  308900    72266    299.52353    237.75577   -8038775.4    64519.835   -7974255.6    1081348.8   0.76041688    65.644178    65.644178    250.94202 
  309000    72266    299.32947   -843.74209   -8038569.3    64478.033   -7974091.2    1082246.7     0.759786    65.666794    65.666794    250.97742 
  309100    72266    299.68724   -50.598371   -8038388.3    64555.101   -7973833.2    1082611.7   0.75952988    65.673233    65.673233    251.01282 
  309200    72266     300.5142    309.65152   -8038332.3    64733.235   -7973599.1    1083280.5   0.75906093    65.688885    65.688885    251.04822 
  309300    72266    300.88269    -281.7522   -8038313.2     64812.61   -7973500.6    1083977.5   0.75857286    65.705382    65.705382    251.08362 
  309400    72266    298.49811   -434.57531   -8038196.5    64298.951   -7973897.5    1084564.8   0.75816208    65.718547    65.718547    251.11902 
  309500    72266    299.18721   -350.33158   -8038598.3     64447.39   -7974150.9    1085171.2   0.75773841    65.732284    65.732284    251.15442 
  309600    72266    299.46287   -51.576789   -8038601.4    64506.769   -7974094.6    1085425.7   0.75756074    65.735359    65.735359    251.18982 
  309700    72266     301.3233    291.60316   -8038584.7    64907.521   -7973677.2    1084630.6   0.75811608    65.706649    65.706649    251.22521 
  309800    72266     300.6494   -1643.5587   -8038340.7    64762.359   -7973578.3    1083796.3   0.75869969    65.676746    65.676746    251.26061 
  309900    72266    299.83658    71.957441   -8038313.7    64587.268   -7973726.5    1083118.4   0.75917455    65.651578    65.651578    251.29601 
  310000    72266    300.39812    144.87221   -8038538.5     64708.23   -7973830.3    1082943.2   0.75929733    65.641646    65.641646    251.33141 
  310100    72266    299.94702   -1054.5001   -8038637.6     64611.06   -7974026.6    1083043.8   0.75922681    65.640072    65.640072    251.36681 
  310200    72266    300.11616   -242.39419   -8038618.2    64647.493   -7973970.7    1082984.6   0.75926833    65.633656    65.633656    251.40221 
  310300    72266    301.46194   -79.243974   -8038668.7    64937.386   -7973731.3    1082852.8   0.75936077    65.625041    65.625041    251.43761 
  310400    72266    301.30987    107.76997   -8038446.4    64904.628   -7973541.8    1082441.9   0.75964898    65.607973    65.607973    251.47301 
  310500    72266    300.81346   -1148.4664   -8038079.2    64797.698   -7973281.5    1082137.8   0.75986247    65.594139    65.594139    251.50841 
  310600    72266    301.61594    970.44108   -8038560.3    64970.559   -7973589.7    1081943.6   0.75999888    65.583637    65.583637     251.5438 
  310700    72266     299.4861   -503.74758   -8038535.3    64511.773   -7974023.5    1082092.2   0.75989454    65.583525    65.583525     251.5792 
  310800    72266    299.63091   -662.06686   -8038588.7    64542.967   -7974045.7    1082836.3   0.75937232    65.601457    65.601457     251.6146 
  310900    72266    300.04353    324.23436   -8038508.5    64631.848   -7973876.6    1083176.6   0.75913373     65.60715     65.60715       251.65 
  311000    72266    299.79021   -712.09985   -8038460.5    64577.281   -7973883.2    1083806.7   0.75869242    65.621613    65.621613     251.6854 
  311100    72266    299.21343   -594.15778   -8038629.9    64453.038   -7974176.9    1084418.8   0.75826415    65.635526    65.635526     251.7208 
  311200    72266    298.34372    1253.1521   -8038648.6    64265.695   -7974382.9    1083958.1   0.75858646    65.616968    65.616968     251.7562 
  311300    72266    299.97653   -928.23555   -8038564.5    64617.415   -7973947.1    1083344.7   0.75901594     65.59379     65.59379     251.7916 
  311400    72266    300.74026    771.81987   -8038503.2     64781.93   -7973721.3    1083110.4   0.75918014    65.582086    65.582086    251.82699 
  311500    72266    299.71438    -409.0945   -8038520.7    64560.947   -7973959.7    1083771.1   0.75871732    65.597475    65.597475    251.86239 
  311600    72266    298.24388    320.58558   -8038449.7     64244.19   -7974205.5    1084543.4   0.75817706    65.616232    65.616232    251.89779 
  311700    72266    298.61786   -731.40891   -8038369.2    64324.746   -7974044.5    1085462.1   0.75753538    65.639404    65.639404    251.93319 
  311800    72266    299.88632   -263.45532   -8038347.9    64597.983   -7973749.9    1085909.3   0.75722339    65.648313    65.648313    251.96859 
  311900    72266    300.50675   -127.22471   -8038397.5     64731.63   -7973665.9    1086088.4    0.7570985    65.649116    65.649116    252.00399 
  312000    72266    300.74681   -162.86534   -8038531.7    64783.341   -7973748.4    1085857.6   0.75725946    65.637529    65.637529    252.03939 
  312100    72266    300.22061   -310.29756   -8038536.3    64669.992   -7973866.3    1086274.9   0.75696851    65.645532    65.645532    252.07479 
  312200    72266    300.06795   -528.32882     -8038647    64637.108   -7974009.9      1086846   0.75657078    65.658175    65.658175    252.11018 
  312300    72266    298.70855    164.43342   -8038580.5    64344.282   -7974236.3    1086645.2    0.7567106      65.6475      65.6475    252.14558 
  312400    72266    300.79439   -40.448673   -8038937.3    64793.589   -7974143.7      1085951    0.7571943    65.621923    65.621923    252.18098 
  312500    72266    300.70775   -796.38999   -8038493.4    64774.927   -7973718.5    1085288.2   0.75765673     65.59729     65.59729    252.21638 
  312600    72266     301.3608    132.56146   -8038427.8      64915.6   -7973512.2    1085053.9   0.75782033    65.585606    65.585606    252.25178 
  312700    72266    300.25407    87.580548   -8038463.3    64677.201   -7973786.1      1085554   0.75747124    65.596115    65.596115    252.28718 
  312800    72266    300.61124    302.24207   -8038687.1    64754.137     -7973933    1085858.2   0.75725905    65.600703    65.600703    252.32258 
  312900    72266    300.66411   -703.99669   -8038734.7    64765.526   -7973969.1      1086465    0.7568361    65.614428    65.614428    252.35798 
  313000    72266    299.85318   -329.22262   -8038532.6    64590.844   -7973941.7    1086994.7   0.75646725     65.62582     65.62582    252.39337 
  313100    72266    300.55704   -496.08613   -8038638.9    64742.461   -7973896.5    1086911.2   0.75652538    65.618698    65.618698    252.42877 
  313200    72266    300.26234   -571.19552   -8038541.4    64678.981   -7973862.4      1087160   0.75635226    65.621606    65.621606    252.46417 
  313300    72266    299.16706    122.59467   -8038378.4    64443.049   -7973935.3    1088028.4   0.75574855    65.643209    65.643209    252.49957 
  313400    72266    299.98893    605.66766   -8038529.2    64620.086   -7973909.1    1088421.5   0.75547564    65.650462    65.650462    252.53497 
  313500    72266    301.04576     315.2251   -8038617.7    64847.737     -7973770    1088813.6   0.75520354    65.657687    65.657687    252.57037 
  313600    72266    301.24057    651.63724   -8038466.4    64889.701   -7973576.7      1088785   0.75522338    65.652224    65.652224    252.60577 
  313700    72266    301.37851    425.15188     -8038216    64919.413   -7973296.6    1089218.1   0.75492312    65.660678    65.660678    252.64117 
  313800    72266    299.39796   -276.56625   -8038063.3    64492.787   -7973570.5    1089687.8   0.75459773    65.670233    65.670233    252.67657 
  313900    72266    298.71147    498.66515   -8038319.2    64344.912   -7973974.3    1089443.8   0.75476668    65.658283    65.658283    252.71196 
  314000    72266    298.34886    267.73125   -8038226.4    64266.803   -7973959.6    1089244.8   0.75490459    65.647688    65.647688    252.74736 
  314100    72266    300.65332   -28.579253   -8038554.5    64763.202   -7973791.3    1089239.6   0.75490821    65.642934    65.642934    252.78276 
  314200    72266    299.95921    155.25169   -8038387.4    64613.685   -7973773.7    1088695.1   0.75528576    65.621931    65.621931    252.81816 
  314300    72266    299.58812      294.631   -8038613.9     64533.75   -7974080.2    1088126.3   0.75568061    65.600192    65.600192    252.85356 
  314400    72266    298.71529    -571.8244   -8038779.5    64345.735   -7974433.7    1087207.9   0.75631894    65.567914    65.567914    252.88896 
  314500    72266    299.09575    -1249.568   -8038744.5    64427.689   -7974316.8    1086991.5    0.7564695      65.5568      65.5568    252.92436 
  314600    72266    300.60817   -380.61473     -8038674    64753.476   -7973920.6    1087753.8   0.75593936    65.575195    65.575195    252.95976 
  314700    72266    300.58677   -144.83745   -8038643.6    64748.866   -7973894.8    1089480.6   0.75474121    65.622633    65.622633    252.99515 
  314800    72266    300.18612    21.220059   -8038490.9    64662.564   -7973828.4      1090950   0.75372463    65.662278    65.662278    253.03055 
  314900    72266    298.71024   -44.807142   -8038129.6    64344.647     -7973785    1091474.6   0.75336236    65.673471    65.673471    253.06595 
  315000    72266    301.22287   -219.84737   -8038486.7    64885.888   -7973600.8    1091809.4   0.75313141    65.678946    65.678946    253.10135 
  315100    72266    300.54386   -1084.1947     -8038265    64739.624   -7973525.4    1091891.3   0.75307489    65.676818    65.676818    253.13675 
  315200    72266    299.65646    905.48657   -8038279.2     64548.47   -7973730.7    1091018.2   0.75367752    65.645966    65.645966    253.17215 
  315300    72266    298.36625    531.56268   -8038309.8    64270.547   -7974039.2    1090634.1   0.75394299    65.629819    65.629819    253.20755 
  315400    72266    298.76327    672.04774     -8038624    64356.069     -7974268    1090762.7    0.7538541    65.629101    65.629101    253.24295 
  315500    72266     298.3121    250.61781   -8038578.5    64258.885   -7974319.6    1090458.8   0.75406415    65.615374    65.615374    253.27834 
  315600    72266    300.08341   -862.75098   -8038329.6    64640.439   -7973689.1    1090696.5   0.75389982     65.61794     65.61794    253.31374 
  315700    72266    300.34531    218.96005   -8038252.2    64696.854   -7973555.3    1091327.9   0.75346369    65.632342    65.632342    253.34914 
  315800    72266    299.99015   -195.54584   -8038311.1     64620.35   -7973690.8    1092078.4   0.75294589     65.65032     65.65032    253.38454 
  315900    72266     298.4024    -847.9656     -8038263    64278.334   -7973984.6      1092782   0.75246107    65.666879    65.666879    253.41994 
  316000    72266     299.4845    551.62227   -8038702.9    64511.428   -7974191.4    1092666.8   0.75254041    65.658832    65.658832    253.45534 
  316100    72266    300.15003    292.17544     -8038521     64654.79   -7973866.2    1092737.8   0.75249149    65.656381    65.656381    253.49074 
  316200    72266    301.73554    370.00118   -8038455.1    64996.321   -7973458.8    1092723.1   0.75250161    65.651356    65.651356    253.52614 
  316300    72266    301.04299    208.01289   -8038395.2     64847.14     -7973548    1092473.5   0.75267354    65.639275    65.639275    253.56153 
  316400    72266    298.28633    1100.7588     -8038191    64253.334   -7973937.7    1092713.7   0.75250814    65.641906    65.641906    253.59693 
  316500    72266    297.94628   -499.22486   -8038267.1    64180.083   -7974087.1    1093907.7   0.75168676    65.673177    65.673177    253.63233 
  316600    72266    299.91518   -276.46767     -8038541    64604.201   -7973936.8    1094696.5   0.75114514    65.692266    65.692266    253.66773 
  316700    72266    299.46279   -584.39343   -8038369.3    64506.751   -7973862.6    1094624.4    0.7511946     65.68552     65.68552    253.70313 
  316800    72266    300.42944    127.14286   -8038444.9    64714.977   -7973729.9    1095297.5   0.75073295     65.70113     65.70113    253.73853 
  316900    72266    300.45543    677.55123   -8038288.3    64720.575   -7973567.7    1096469.9   0.74993022    65.731699    65.731699    253.77393 
  317000    72266    301.07609      338.199   -8038320.5    64854.271   -7973466.2    1097499.2    0.7492269    65.757957    65.757957    253.80933 
  317100    72266    300.18591   -48.574626   -8038351.8    64662.518   -7973689.3      1097973   0.74890355    65.767566    65.767566    253.84473 
  317200    72266    299.73528    894.31673   -8038628.6    64565.449   -7974063.2    1097469.3   0.74924732    65.747892    65.747892    253.88012 
  317300    72266    299.90201    441.98341   -8038767.2    64601.363   -7974165.8    1096121.5    0.7501686    65.702927    65.702927    253.91552 
  317400    72266    298.46094   -194.87527   -8038385.9    64290.945     -7974095      1095295   0.75073469    65.673573    65.673573    253.95092 
  317500    72266    300.71132    -760.5974   -8038316.1    64775.697   -7973540.5    1095737.8   0.75043127    65.682271    65.682271    253.98632 
  317600    72266    300.88152   -113.19207   -8038326.3    64812.358   -7973513.9    1096770.8   0.74972449    65.708645    65.708645    254.02172 
  317700    72266    301.24679    1030.3949     -8038689    64891.041     -7973798    1097246.5   0.74939943    65.718315    65.718315    254.05712 
  317800    72266    299.17964   -530.24672   -8038350.2    64445.759   -7973904.4    1097645.6     0.749127    65.725685    65.725685    254.09252 
  317900    72266    300.25419   -492.04025   -8038493.7    64677.225   -7973816.5    1097911.1   0.74894578    65.729058    65.729058    254.12792 
  318000    72266    299.81228   -644.44777   -8038409.5    64582.036   -7973827.4    1097681.8   0.74910225    65.717616    65.717616    254.16331 
  318100    72266    299.11515   -65.113043   -8038636.4    64431.868   -7974204.5    1097693.5   0.74909426    65.713391    65.713391    254.19871 
  318200    72266    298.77088   -99.170434   -8038701.3    64357.708   -7974343.6    1097982.3   0.74889724    65.717459    65.717459    254.23411 
  318300    72266    300.36689    663.61387   -8038601.1    64701.503   -7973899.6    1098479.1   0.74855851     65.72775     65.72775    254.26951 
  318400    72266    300.76707   -772.60879   -8038446.1    64787.704   -7973658.4    1098548.2   0.74851147     65.72524     65.72524    254.30491 
  318500    72266     300.9741   -39.732224   -8038503.6    64832.301   -7973671.3    1098821.4   0.74832537    65.728838    65.728838    254.34031 
  318600    72266    300.20063    584.47328   -8038616.8    64665.689   -7973951.1    1099066.3   0.74815863    65.731588    65.731588    254.37571 
  318700    72266    298.97223    121.70338   -8038711.3    64401.082   -7974310.3    1098589.1    0.7484836    65.712745    65.712745    254.41111 
  318800    72266    299.41114    205.11872   -8038820.1    64495.627   -7974324.4    1097968.9   0.74890639    65.689623    65.689623     254.4465 
  318900    72266    300.89025    89.273764     -8038478    64814.238   -7973663.8    1097954.4   0.74891624    65.684622    65.684622     254.4819 
  319000    72266    300.59773     179.0835   -8038187.5    64751.226   -7973436.3    1098187.6   0.74875725    65.687027    65.687027     254.5173 
  319100    72266      301.439   -709.44599   -8038572.9    64932.445   -7973640.4    1097842.1   0.74899285    65.672129    65.672129     254.5527 
  319200    72266    300.70678   -858.92971   -8038827.9    64774.717   -7974053.1    1097192.6   0.74943628    65.648133    65.648133     254.5881 
  319300    72266    298.82826    408.23895   -8038642.8     64370.07   -7974272.8    1097001.4   0.74956691    65.637849    65.637849     254.6235 
  319400    72266    299.44854   -536.14509     -8038692    64503.683   -7974188.3    1097274.1   0.74938057    65.641447    65.641447     254.6589 
  319500    72266    299.81722    854.52158   -8038431.1      64583.1     -7973848    1096960.7   0.74959472    65.627509    65.627509     254.6943 
  319600    72266    300.19026   -523.06682   -8038137.7    64663.454   -7973474.2    1096624.2   0.74982467    65.612885    65.612885    254.72969 
  319700    72266    301.12428     -466.687   -8038348.8    64864.652   -7973484.2    1096783.4   0.74971587    65.613087    65.613087    254.76509 
  319800    72266    299.59845    618.83461   -8038597.5    64535.975   -7974061.5    1097463.6    0.7492512    65.628871    65.628871    254.80049 
  319900    72266    300.39875   -596.74182   -8038714.8    64708.365   -7974006.5    1098604.6   0.74847306    65.658416    65.658416    254.83589 
  320000    72266    299.85112    819.52159   -8038483.2    64590.402   -7973892.8    1099550.1   0.74782944    65.682103    65.682103    254.87129 
  320100    72266    298.73725   -97.213318   -8038270.2    64350.465   -7973919.8    1100117.8   0.74744353    65.694494    65.694494    254.90669 
  320200    72266    301.01154    270.11151   -8038540.5    64840.365   -7973700.1    1100184.8     0.747398    65.691934    65.691934    254.94209 
  320300    72266     301.6641   -169.84119     -8038491    64980.932   -7973510.1    1100645.4   0.74708522    65.701123    65.701123    254.97749 
  320400    72266    300.39397    289.84675   -8038433.8    64707.337   -7973726.5    1100898.7   0.74691334    65.704122    65.704122    255.01289 
  320500    72266    299.39063   -246.87838   -8038692.5    64491.209   -7974201.3    1101601.7   0.74643668    65.720536    65.720536    255.04828 
  320600    72266    299.90461    -569.6692   -8038765.7    64601.923   -7974163.7    1101889.9   0.74624148     65.72457     65.72457    255.08368 
  320700    72266    299.90814   -79.538239   -8038412.9    64602.683   -7973810.3      1102008   0.74616149    65.723532    65.723532    255.11908 
  320800    72266     300.7962   -275.01023   -8038359.4     64793.98   -7973565.4    1102125.4   0.74608198    65.722475    65.722475    255.15448 
  320900    72266    300.95297    1090.1574   -8038459.7    64827.749   -7973631.9    1102562.9   0.74578595    65.730958    65.730958    255.18988 
  321000    72266    299.84949   -340.28166   -8038411.1    64590.049     -7973821    1102173.5   0.74604945    65.714792    65.714792    255.22528 
  321100    72266    299.55948   -1231.7427   -8038686.9     64527.58   -7974159.3    1101537.2    0.7464804    65.691265    65.691265    255.26068 
  321200    72266    299.64393    146.41706   -8038762.7    64545.772     -7974217    1101170.4   0.74672902    65.675774    65.675774    255.29608 
  321300    72266    300.33107    957.98798   -8038790.7    64693.786     -7974097    1101380.2   0.74658678    65.677477    65.677477    255.33147 
  321400    72266    298.68492    164.70825   -8038303.3    64339.191   -7973964.1    1101301.7      0.74664    65.670584    65.670584    255.36687 
  321500    72266    300.40304    586.36031   -8038412.1    64709.291   -7973702.8    1101758.2   0.74633065    65.679641    65.679641    255.40227 
  321600    72266    299.31699    381.26486   -8038225.9    64475.345   -7973750.6    1102194.2   0.74603543    65.688083    65.688083    255.43767 
  321700    72266    298.91745   -424.24513   -8038541.2    64389.282   -7974151.9    1102300.8   0.74596329    65.686708    65.686708    255.47307 
  321800    72266    298.68866   -53.067104   -8038653.3    64339.999   -7974313.3    1102009.3    0.7461606    65.673473    65.673473    255.50847 
  321900    72266    299.70064    541.34904   -8038561.3    64557.986   -7974003.3    1101604.4   0.74643484    65.656859    65.656859    255.54387 
  322000    72266    301.17172   -25.501884   -8038540.4     64874.87   -7973665.5      1101145   0.74674628     65.63862     65.63862    255.57927 
  322100    72266    301.73294   -81.452432   -8038702.8    64995.761     -7973707      1100629   0.74709635    65.618696    65.618696    255.61466 
  322200    72266    301.269