LAMMPS (2 Aug 2019)
# single cnt with 10% -OH functionalization
# lammps code to simulate tension test on RVE of nanocomposite with crack
# crack needs to be initiated first
# system is already equilibrated
# delete some atoms from a region to intiate a crack
# no cnt fix in MS equilibration
# load equilibrated structure

read_restart    restart.npt_equi
  restoring atom style charge from restart
  orthogonal box = (0.205008 0.409636 -1.49741) to (70.9768 71.1814 140.046)
  4 by 2 by 7 MPI processor grid
  pair style reax/c stores no restart info
  73382 atoms
  read_restart CPU = 0.302007 secs

# ReaxFF potential to define interatomic interactions

pair_style	reax/c control_file lgvdw yes
pair_coeff	* * ffield.reax.lg C C H O H C C C O O C C
Reading potential file ffield.reax.lg with DATE: 2012-01-06

neighbor	4 bin
neigh_modify	every 10 delay 0 check no

thermo 100
thermo_style custom step atoms temp press pe ke etotal vol density lx ly lz      #output variables

compute pnc_temp all temp
compute pnc_pe all pe/atom
compute pnc_stress all stress/atom pnc_temp pair bond
compute pnc_str all reduce sum c_pnc_stress[3]

variable tmpz equal "lz"
variable L0z equal ${tmpz}
variable L0z equal 141.543551137998
variable tmpx equal "lx"
variable L0x equal ${tmpx}
variable L0x equal 70.7717755689992
variable tmpy equal "ly"
variable L0y equal ${tmpy}
variable L0y equal 70.7717755689991

# define groups of atoms to delete

fix std all qeq/reax 1 0.0 10.0 1e-6 reax/c

region atoms_for_deletion block EDGE 20.0 EDGE EDGE 68.728795 71.228795              # NOTE: box size will change after equilibration
delete_atoms region atoms_for_deletion
Deleted 371 atoms, new total = 73011
reset_ids
Resetting atom IDs ...
Unused restart file global fix info:
  fix style: npt, fix ID: npt_equi
Neighbor list info ...
  update every 10 steps, delay 0 steps, check no
  max neighbors/atom: 2000, page size: 100000
  master list distance cutoff = 14
  ghost atom cutoff = 14
  binsize = 7, bins = 11 11 21
  2 neighbor lists, perpetual/occasional/extra = 2 0 0
  (1) pair reax/c, perpetual
      attributes: half, newton off, ghost
      pair build: half/bin/newtoff/ghost
      stencil: half/ghost/bin/3d/newtoff
      bin: standard
  (2) fix qeq/reax, perpetual, copy from (1)
      attributes: half, newton off, ghost
      pair build: copy
      stencil: none
      bin: none

reset_timestep 0
timestep 0.25
thermo_style custom step atoms temp press pe ke etotal vol density lx ly lz
fix 1 all npt temp 300.0 300.0 25.0 x 0.0 0.0 250.0 y 0.0 0.0 250.0 couple xy
fix 2 all deform 1 z erate 0.00001 units box
fix bd all reax/c/bonds 1000 bonds.reaxc
dump deform1 all custom 1000 dump.deform id type x y z

variable strainz equal "(lz-v_L0z)/v_L0z"
variable strainx equal "(lx-v_L0x)/v_L0x"
variable strainy equal "(ly-v_L0y)/v_L0y"
variable stressz equal "-pzz/10000"
variable p1 equal "v_stressz"
variable p2 equal "v_strainz"
variable p3 equal "v_strainx"
variable p4 equal "v_strainy"
fix 3 all print 100 "${p1} ${p2} ${p3} ${p4}" file pmma_pnc_crack.txt screen no

run 300000
Per MPI rank memory allocation (min/avg/max) = 294 | 324.8 | 349.1 Mbytes
Step Atoms Temp Press PotEng KinEng TotEng Volume Density Lx Ly Lz 
       0    73011    298.93266    322.68667   -8090756.4    65056.398     -8025700    708941.29     1.165277    70.771776    70.771776    141.54355 
     100    73011    307.50935    403.30863   -8093291.2    66922.935   -8026368.3    709190.26    1.1648679    70.775355    70.775355    141.57894 
     200    73011    305.49839   -148.48046   -8093924.3    66485.291     -8027439    709540.91    1.1642922    70.784005    70.784005    141.61432 
     300    73011      304.578    37.439701   -8094917.6    66284.987   -8028632.6     709415.5    1.1644981    70.768908    70.768908    141.64971 
     400    73011     300.4665   -1568.0744     -8095105    65390.207   -8029714.8    709701.55    1.1640287    70.774335    70.774335    141.68509 
     500    73011    300.06512    1130.8317   -8095914.3    65302.855   -8030611.4    709289.09    1.1647056    70.744932    70.744932    141.72048 
     600    73011    299.61654   -797.35662   -8096411.4     65205.23   -8031206.2    709274.14    1.1647301    70.735356    70.735356    141.75587 
     700    73011    299.07636     113.2671   -8096571.6    65087.671   -8031483.9    709277.88     1.164724    70.726715    70.726715    141.79125 
     800    73011    300.38602     522.2178   -8096733.1    65372.692   -8031360.4    709042.63    1.1651104    70.706163    70.706163    141.82664 
     900    73011    300.37706   -861.91958   -8096415.1    65370.741   -8031044.4    708551.15    1.1659186    70.672837    70.672837    141.86202 
    1000    73011    301.51634   -382.16912   -8096765.7    65618.681   -8031147.1    708366.48    1.1662226    70.654815    70.654815    141.89741 
    1100    73011    300.09501    674.44781   -8096966.6    65309.359   -8031657.3    708140.39    1.1665949    70.634732    70.634732     141.9328 
    1200    73011    298.66457     1323.704   -8097054.3    64998.054   -8032056.2    708157.56    1.1665666    70.626785    70.626785    141.96818 
    1300    73011    298.29432   -309.46247   -8097105.4    64917.478   -8032187.9    708427.41    1.1661222    70.631438    70.631438    142.00357 
    1400    73011    300.16829    522.08198   -8097237.3    65325.307     -8031912    708747.81    1.1655951    70.638608    70.638608    142.03895 
    1500    73011     301.2102     1318.126   -8097234.7    65552.057   -8031682.7    709434.91    1.1644662    70.664039    70.664039    142.07434 
    1600    73011    299.69663   -217.97164   -8097134.9    65222.661   -8031912.2    709905.69     1.163694     70.67868     70.67868    142.10973 
    1700    73011    297.99312   -45.226547   -8097064.6    64851.928   -8032212.6    709916.08    1.1636769    70.670399    70.670399    142.14511 
    1800    73011    300.39314     180.1448   -8097484.6     65374.24   -8032110.3    710202.21    1.1632081    70.675843    70.675843     142.1805 
    1900    73011    299.34089    -472.1264   -8097105.2    65145.241   -8031959.9    710730.95    1.1623427     70.69335     70.69335    142.21588 
    2000    73011    301.00324   -710.78926   -8097321.4    65507.017   -8031814.4    710629.18    1.1625092    70.679496    70.679496    142.25127 
    2100    73011    302.33793    267.00032   -8097608.6    65797.484   -8031811.2    710526.35    1.1626774    70.665593    70.665593    142.28665 
    2200    73011    299.80077   -848.44878   -8097546.5    65245.324   -8032301.1    710235.34    1.1631538    70.642337    70.642337    142.32204 
    2300    73011    299.30862   -21.124935   -8097445.1    65138.219   -8032306.9    710408.55    1.1628702    70.642169    70.642169    142.35743 
    2400    73011    300.51728   -764.18497   -8097485.8    65401.257   -8032084.5    710708.75    1.1623791    70.648313    70.648313    142.39281 
    2500    73011    299.91668    457.05766   -8097309.7    65270.549   -8032039.2    710485.57    1.1627442    70.628444    70.628444     142.4282 
    2600    73011    301.09436     308.9714   -8097513.2    65526.847   -8031986.4    710531.09    1.1626697    70.621934    70.621934    142.46358 
    2700    73011     301.5731   -1113.9289   -8097678.9    65631.035   -8032047.9    710605.61    1.1625478    70.616868    70.616868    142.49897 
    2800    73011    299.30414   -232.96713   -8097612.1    65137.242   -8032474.8    709695.52    1.1640386    70.562873    70.562873    142.53436 
    2900    73011    298.49442   -2390.6636   -8097604.8    64961.026   -8032643.8     709583.3    1.1642227    70.548537    70.548537    142.56974 
    3000    73011    300.01153   -1231.9919   -8097825.3    65291.191   -8032534.1    709939.79    1.1636381    70.557501    70.557501    142.60513 
    3100    73011    301.74754   -276.38482   -8097810.7    65668.998   -8032141.7    709499.31    1.1643605    70.526859    70.526859    142.64051 
    3200    73011    303.20985    135.48395   -8097905.4     65987.24   -8031918.1    709817.43    1.1638387     70.53392     70.53392     142.6759 
    3300    73011     298.9044    371.03647   -8097533.8    65050.248   -8032483.5     710000.8    1.1635381    70.534284    70.534284    142.71129 
    3400    73011    298.51186   -94.757733   -8097537.9    64964.821   -8032573.1    709999.55    1.1635401    70.525479    70.525479    142.74667 
    3500    73011    298.79147    484.61824   -8097524.3    65025.671   -8032498.7     710199.9    1.1632119    70.526687    70.526687    142.78206 
    3600    73011    301.13837    1023.0852   -8097956.3    65536.424   -8032419.8    709708.42    1.1640174    70.493545    70.493545    142.81744 
    3700    73011     300.1711   -33.580642   -8097788.7    65325.919   -8032462.8    709486.54    1.1643815    70.473795    70.473795    142.85283 
    3800    73011    301.06709   -105.53147   -8098040.4    65520.912   -8032519.5    709627.53    1.1641501    70.472069    70.472069    142.88821 
    3900    73011    299.15251   -1403.7029   -8097710.3    65104.243     -8032606    709664.34    1.1640897    70.465172    70.465172     142.9236 
    4000    73011    299.70678    537.07633   -8097653.9    65224.869     -8032429    710014.61    1.1635154    70.473836    70.473836    142.95899 
    4100    73011    301.43937   -988.04778   -8097817.4     65601.93   -8032215.5    710058.48    1.1634436    70.467293    70.467293    142.99437 
    4200    73011    300.25013   -204.50394     -8097693    65343.118   -8032349.9    710483.91    1.1627469     70.47968     70.47968    143.02976 
    4300    73011    300.30906   -1736.3786   -8098077.7    65355.944   -8032721.7    711222.76     1.161539    70.507595    70.507595    143.06514 
    4400    73011     298.6756   -2441.0172   -8097908.9    65000.456   -8032908.4    711737.16    1.1606995    70.524367    70.524367    143.10053 
    4500    73011    300.59492   -1194.9256   -8097984.9    65418.154   -8032566.8    711985.58    1.1602945    70.527954    70.527954    143.13592 
    4600    73011    300.35567   -585.49256   -8097730.3    65366.087   -8032364.2    712029.15    1.1602235    70.521396    70.521396     143.1713 
    4700    73011    301.01149   -314.70752     -8097865    65508.813   -8032356.2    711767.47    1.1606501    70.499724    70.499724    143.20669 
    4800    73011    299.33749    -1131.495     -8097544    65144.501   -8032399.5    711713.53     1.160738    70.488344    70.488344    143.24207 
    4900    73011    300.00607   -992.94767   -8097598.3    65290.004   -8032308.3    712024.05    1.1602318    70.495013    70.495013    143.27746 
    5000    73011    300.99084    223.92497   -8097524.6    65504.318   -8032020.2    711723.79    1.1607213    70.471446    70.471446    143.31285 
    5100    73011    301.12316    492.57182   -8097506.8    65533.114   -8031973.7    711800.64     1.160596    70.466551    70.466551    143.34823 
    5200    73011    299.27571   -2317.3407   -8097577.3    65131.055   -8032446.3    712186.38    1.1599674    70.476944    70.476944    143.38362 
    5300    73011    298.10758   -916.43589   -8097533.1    64876.837   -8032656.3    711723.69    1.1607215    70.445355    70.445355      143.419 
    5400    73011    299.62136    211.48202   -8097792.9    65206.279   -8032586.6    711739.15    1.1606963    70.437431    70.437431    143.45439 
    5500    73011    299.20809   -2019.0456   -8097534.5     65116.34   -8032418.2    712448.85      1.15954     70.46385     70.46385    143.48977 
    5600    73011    300.92056    309.36387   -8097470.7    65489.023   -8031981.7    712392.77    1.1596313     70.45239     70.45239    143.52516 
    5700    73011    301.35037    763.81923   -8097717.3    65582.563   -8032134.7    712520.86    1.1594229    70.450039    70.450039    143.56055 
    5800    73011    300.45797    838.73475   -8097910.2     65388.35   -8032521.9    712383.23    1.1596468    70.434555    70.434555    143.59593 
    5900    73011    300.35542   -627.75667   -8097980.3    65366.033   -8032614.2    712285.22    1.1598064    70.421033    70.421033    143.63132 
    6000    73011    300.09115   -843.31726   -8098057.3    65308.519   -8032748.7    711853.68    1.1605095    70.391027    70.391027     143.6667 
    6100    73011    300.60791   -1861.9102   -8098201.6    65420.981   -8032780.6    711316.12    1.1613865     70.35578     70.35578    143.70209 
    6200    73011    299.95742   -368.40692   -8098029.1    65279.417   -8032749.7    710914.72    1.1620423    70.327268    70.327268    143.73748 
    6300    73011       299.85    321.22425     -8097874    65256.037     -8032618    710796.86     1.162235    70.312783    70.312783    143.77286 
    6400    73011    301.29382   -1136.3417   -8097852.4    65570.256   -8032282.2    711416.24    1.1612231    70.334757    70.334757    143.80825 
    6500    73011    299.84853    352.61204     -8097509    65255.719   -8032253.3    711884.44    1.1604594    70.349243    70.349243    143.84363 
    6600    73011     300.6211    -1523.798   -8098053.5    65423.853   -8032629.6    712606.36    1.1592837    70.376248    70.376248    143.87902 
    6700    73011    299.63087   -609.56282   -8098162.2    65208.349   -8032953.9    713003.57    1.1586379    70.387205    70.387205    143.91441 
    6800    73011     300.2738    62.707311   -8098169.9     65348.27   -8032821.6    713553.05    1.1577457    70.405666    70.405666    143.94979 
    6900    73011    299.85477   -1378.1508   -8097775.8    65257.076   -8032518.7    714295.43    1.1565424    70.433625    70.433625    143.98518 
    7000    73011     299.6559   -663.00029   -8097576.5    65213.797   -8032362.7     714725.8     1.155846    70.446185    70.446185    144.02056 
    7100    73011    300.18021   -855.31093   -8097679.2    65327.902   -8032351.3    714683.97    1.1559137    70.435471    70.435471    144.05595 
    7200    73011    301.30076     216.3132   -8098107.6    65571.765   -8032535.8    714392.61    1.1563851    70.412464    70.412464    144.09134 
    7300    73011    299.03028   -194.65406     -8098071    65077.643   -8032993.4    713796.79    1.1573503    70.374455    70.374455    144.12672 
    7400    73011    299.48516    233.40736     -8098046    65176.638   -8032869.3    713473.21    1.1578752    70.349866    70.349866    144.16211 
    7500    73011    300.20868   -1688.0389   -8097878.5    65334.098   -8032544.4     713311.5    1.1581377    70.333262    70.333262    144.19749 
    7600    73011    299.66362   -489.68245   -8097638.8    65215.477   -8032423.3    713357.88    1.1580624     70.32692     70.32692    144.23288 
    7700    73011     300.0944    -670.7145   -8097721.8    65309.227   -8032412.6    713669.53    1.1575567    70.333653    70.333653    144.26826 
    7800    73011    300.81059   -226.75328   -8097808.7    65465.091   -8032343.6    713808.89    1.1573307    70.331895    70.331895    144.30365 
    7900    73011    299.66328    1328.4226   -8097555.3    65215.402   -8032339.9    713601.36    1.1576673    70.313049    70.313049    144.33904 
    8000    73011    299.98326    448.60563     -8097820    65285.039     -8032535    713842.38    1.1572764    70.316304    70.316304    144.37442 
    8100    73011    299.21535    104.67734   -8097956.5     65117.92   -8032838.5    714229.48    1.1566492    70.326749    70.326749    144.40981 
    8200    73011     298.2293    684.62022   -8097819.5    64903.327   -8032916.1    713841.58    1.1572777    70.299037    70.299037    144.44519 
    8300    73011    299.69844   -1608.5476   -8097656.3    65223.054   -8032433.3    714511.96    1.1561919    70.323425    70.323425    144.48058 
    8400    73011    300.73056    -929.8077   -8097691.8    65447.674   -8032244.2    714443.52    1.1563027    70.311447    70.311447    144.51597 
    8500    73011    300.12256    -1742.116   -8097795.5    65315.354   -8032480.1    714186.12    1.1567194    70.290175    70.290175    144.55135 
    8600    73011    298.45782    482.31608   -8097675.7     64953.06   -8032722.7    714079.28    1.1568925    70.276316    70.276316    144.58674 
    8700    73011    299.62489   -69.084832   -8097815.8    65207.048   -8032608.7    713822.74    1.1573083    70.255094    70.255094    144.62212 
    8800    73011    300.45209   -559.40106   -8097541.3     65387.07   -8032154.3    713748.18    1.1574292    70.242832    70.242832    144.65751 
    8900    73011    301.53016   -2221.8981   -8097524.1     65621.69   -8031902.4    714152.17    1.1567744    70.254116    70.254116     144.6929 
    9000    73011    301.77028    1778.4654   -8097743.8    65673.947   -8032069.9     713634.9    1.1576129    70.220083    70.220083    144.72828 
    9100    73011    299.41998   -243.38616   -8097521.2    65162.454   -8032358.7    714012.68    1.1570004    70.230082    70.230082    144.76367 
    9200    73011    299.36156    381.45384   -8097790.9    65149.739   -8032641.2    713853.46    1.1572585     70.21367     70.21367    144.79905 
    9300    73011    299.20205   -791.89526   -8097869.6    65115.027   -8032754.6    713999.63    1.1570215     70.21228     70.21228    144.83444 
    9400    73011    299.96969   -958.32467   -8097795.2    65282.087   -8032513.1    714115.33    1.1568341    70.209392    70.209392    144.86982 
    9500    73011    300.26875    48.755334   -8097316.4     65347.17   -8031969.3    714110.08    1.1568426    70.200561    70.200561    144.90521 
    9600    73011    300.95846   -2100.0768   -8097528.2    65497.272   -8032030.9    714383.22    1.1564003    70.205413    70.205413     144.9406 
    9700    73011    299.92404   -98.473161   -8097660.6    65272.152   -8032388.5    714272.38    1.1565797    70.191399    70.191399    144.97598 
    9800    73011    300.66679    678.54809   -8098008.4    65433.795   -8032574.6    714674.76    1.1559286      70.2026      70.2026    145.01137 
    9900    73011    299.65942   -720.04011     -8097871    65214.562   -8032656.5     714755.3    1.1557983    70.197991    70.197991    145.04675 
   10000    73011    299.32677    -579.7165   -8097819.4    65142.168   -8032677.3    714400.08     1.156373    70.171987    70.171987    145.08214 
   10100    73011    299.73493   -871.04669   -8097606.3    65230.997   -8032375.3    714158.24    1.1567646    70.151553    70.151553    145.11753 
   10200    73011    301.29187   -1530.7967   -8097554.3     65569.83   -8031984.4    714250.96    1.1566144    70.147555    70.147555    145.15291 
   10300    73011    301.23379   -1028.3036   -8097648.9    65557.191   -8032091.7    714140.59    1.1567932    70.133587    70.133587     145.1883 
   10400    73011    300.46612    427.58667   -8097894.3    65390.125   -8032504.1    714217.84    1.1566681    70.128835    70.128835    145.22368 
   10500    73011    299.57439    -1535.595   -8097773.5    65196.057   -8032577.5     714315.6    1.1565098    70.125091    70.125091    145.25907 
   10600    73011    298.81498   -1868.9549   -8097490.5    65030.789   -8032459.7    714411.72    1.1563542    70.121269    70.121269    145.29446 
   10700    73011    301.03591   -1349.4945   -8097667.9    65514.127   -8032153.8    714889.68    1.1555811    70.136181    70.136181    145.32984 
   10800    73011    301.12417   -180.62782   -8097510.9    65533.335   -8031977.6    715523.48    1.1545575    70.158723    70.158723    145.36523 
   10900    73011    300.51472   -628.06873   -8097573.6    65400.701   -8032172.9     716045.2    1.1537162    70.175756    70.175756    145.40061 
   11000    73011    298.42398    876.20875   -8097563.8    64945.694   -8032618.1    716521.68     1.152949     70.19056     70.19056      145.436 
   11100    73011    298.30456   -2212.4233   -8097573.5    64919.706   -8032653.8     716739.6    1.1525985    70.192695    70.192695    145.47138 
   11200    73011    300.26639   -569.40406   -8097648.3    65346.656   -8032301.6       716820    1.1524692    70.188095    70.188095    145.50677 
   11300    73011    301.43884   -866.20125   -8097676.4    65601.815   -8032074.6    716563.75    1.1528813    70.167017    70.167017    145.54216 
   11400    73011    301.85532    8.0136294   -8097851.3    65692.453   -8032158.8    716588.95    1.1528408    70.159723    70.159723    145.57754 
   11500    73011    300.73863   -187.34719     -8097906    65449.429   -8032456.5    716988.97    1.1521976    70.170774    70.170774    145.61293 
   11600    73011    300.32508   -1948.9827   -8097867.8    65359.428   -8032508.4    716973.77     1.152222    70.161506    70.161506    145.64831 
   11700    73011     300.1782   -1717.6811     -8097845    65327.464   -8032517.5    716447.12     1.153069    70.127215    70.127215     145.6837 
   11800    73011    299.53163   -1015.0163   -8097627.4    65186.752   -8032440.6    716554.04    1.1528969    70.123931    70.123931    145.71909 
   11900    73011    300.36062   -285.55287   -8097586.1    65367.164   -8032218.9     716829.8    1.1524534    70.128909    70.128909    145.75447 
   12000    73011    300.03086    -1439.139   -8097345.5    65295.398   -8032050.1    717140.76    1.1519537    70.135605    70.135605    145.78986 
   12100    73011    299.70652   -1199.6051   -8097512.4    65224.813   -8032287.6    717370.58    1.1515847    70.138331    70.138331    145.82524 
   12200    73011    299.31327   -1654.3714   -8097710.9    65139.229   -8032571.7    717841.29    1.1508295    70.152827    70.152827    145.86063 
   12300    73011    299.84396   -1020.2376   -8097820.8    65254.724   -8032566.1    717535.15    1.1513206     70.12936     70.12936    145.89602 
   12400    73011    300.93299   -314.54822   -8097741.6    65491.729   -8032249.8    717983.59    1.1506015    70.142765    70.142765     145.9314 
   12500    73011    301.66259    668.60514   -8097511.9     65650.51   -8031861.4    718008.64    1.1505613    70.135486    70.135486    145.96679 
   12600    73011     300.5415    263.43771   -8097465.2    65406.528   -8032058.7    718090.35    1.1504304    70.130976    70.130976    146.00217 
   12700    73011    299.17679   -2419.7689   -8097515.9    65109.528   -8032406.3    718295.33    1.1501021    70.132487    70.132487    146.03756 
   12800    73011    299.49695   -1326.1602   -8097610.6    65179.204   -8032431.4    718218.53    1.1502251    70.120243    70.120243    146.07294 
   12900    73011    299.39523   -783.54157     -8097476    65157.066   -8032318.9    718454.51    1.1498473    70.123268    70.123268    146.10833 
   13000    73011     299.9587   -1262.0931   -8097358.6    65279.694   -8032078.9    719008.76    1.1489609    70.141818    70.141818    146.14372 
   13100    73011    301.89902    -907.8614   -8097319.4    65701.963   -8031617.4    718987.48    1.1489949     70.13229     70.13229     146.1791 
   13200    73011    300.39866   -358.11952   -8097005.5    65375.443   -8031630.1    718913.99    1.1491124    70.120219    70.120219    146.21449 
   13300    73011    300.34018    988.69898   -8097498.3    65362.715   -8032135.6    719291.63    1.1485091    70.130148    70.130148    146.24987 
   13400    73011    299.21755   -979.67211   -8097386.7      65118.4   -8032268.3    719419.79    1.1483045    70.127912    70.127912    146.28526 
   13500    73011    299.85826    183.01963   -8097681.6    65257.836   -8032423.8    719319.71    1.1484642    70.114554    70.114554    146.32065 
   13600    73011    300.02497   -606.76181   -8097804.9    65294.116   -8032510.8    719114.48     1.148792    70.096075    70.096075    146.35603 
   13700    73011    298.36572   -1818.9806   -8097323.8    64933.015   -8032390.8    719053.08    1.1488901    70.084611    70.084611    146.39142 
   13800    73011    300.41631   -364.93494   -8097294.2    65379.283   -8031914.9    718820.56    1.1492617    70.064811    70.064811     146.4268 
   13900    73011    301.15663   -78.506957     -8097364      65540.4   -8031823.6    718414.55    1.1499112    70.036559    70.036559    146.46219 
   14000    73011    300.88473   -394.71464   -8097605.5    65481.225   -8032124.3    718374.29    1.1499757    70.026138    70.026138    146.49758 
   14100    73011    301.03005   -362.55263   -8097894.5    65512.852   -8032381.6    718487.99    1.1497937    70.023222    70.023222    146.53296 
   14200    73011    300.16556   -1486.4616   -8097797.7    65324.714     -8032473    718779.55    1.1493273    70.028974    70.028974    146.56835 
   14300    73011    300.00622    589.98359   -8097709.4    65290.036   -8032419.4    718386.39    1.1499563    70.001369    70.001369    146.60373 
   14400    73011    299.70551   -515.80481   -8097587.5    65224.593   -8032362.9    718814.22    1.1492719    70.013761    70.013761    146.63912 
   14500    73011    300.54549    287.13133   -8097480.5    65407.397   -8032073.1     719418.1    1.1483072    70.034715    70.034715     146.6745 
   14600    73011    300.50572   -2351.6745   -8097181.8    65398.743     -8031783    719610.19    1.1480006    70.035616    70.035616    146.70989 
   14700    73011    300.90733    -1204.757   -8097114.4    65486.143   -8031628.2    719547.28     1.148101    70.024111    70.024111    146.74528 
   14800    73011    301.52399    461.20008   -8097579.3    65620.347     -8031959    719652.75    1.1479328    70.020801    70.020801    146.78066 
   14900    73011     300.2859    388.97052     -8097706    65350.903   -8032355.1    719365.63    1.1483909    69.998394    69.998394    146.81605 
   15000    73011    299.05165   -1517.8009   -8097582.9    65082.294   -8032500.6    719164.75    1.1487117    69.980187    69.980187    146.85143 
   15100    73011    299.04441   -1706.7292     -8097524    65080.718   -8032443.3    719097.93    1.1488184    69.968507    69.968507    146.88682 
   15200    73011    301.06456    1278.8607   -8097553.6    65520.362   -8032033.2    719369.86    1.1483842    69.973307    69.973307    146.92221 
   15300    73011    302.02312   -1317.0775   -8097634.5    65728.971   -8031905.5    719346.69    1.1484212    69.963755    69.963755    146.95759 
   15400    73011    299.49604   -2381.9118   -8097449.7    65179.007   -8032270.7    719808.87    1.1476838    69.977803    69.977803    146.99298 
   15500    73011    299.80072   -678.23314   -8097570.1    65245.312   -8032324.8    720128.26    1.1471748    69.984903    69.984903    147.02836 
   15600    73011    299.10219   -566.81596   -8097491.3    65093.293     -8032398    719923.27    1.1475014    69.966523    69.966523    147.06375 
   15700    73011    299.01041    168.01062   -8097521.9    65073.318   -8032448.6     720236.5    1.1470024    69.973324    69.973324    147.09914 
   15800    73011    301.23057   -1767.6055   -8097620.1    65556.489   -8032063.6    720573.67    1.1464657    69.981284    69.981284    147.13452 
   15900    73011    300.97175   -538.14125   -8097271.6    65500.164   -8031771.5    720194.57    1.1470691    69.954461    69.954461    147.16991 
   16000    73011    301.28032    266.23753   -8097471.6    65567.316   -8031904.3    720031.74    1.1473285    69.938145    69.938145    147.20529 
   16100    73011    300.31201   -281.88949   -8097636.7    65356.585   -8032280.1    720053.76    1.1472934     69.93081     69.93081    147.24068 
   16200    73011    299.94941   -1144.3404   -8097704.8    65277.673   -8032427.1    719992.51    1.1473911    69.919434    69.919434    147.27606 
   16300    73011    299.52112   -717.67872   -8097533.6    65184.465   -8032349.2    719832.41    1.1476462    69.903262    69.903262    147.31145 
   16400    73011    300.24729   -673.59074   -8097451.2    65342.501   -8032108.7    719981.87     1.147408    69.902124    69.902124    147.34684 
   16500    73011    301.42977    273.11888   -8097403.1    65599.841   -8031803.3    720116.13    1.1471941    69.900248    69.900248    147.38222 
   16600    73011    302.48549   -346.07489   -8097534.9    65829.597   -8031705.3    720296.29    1.1469071    69.900601    69.900601    147.41761 
   16700    73011    300.45956   -768.59633   -8097661.9    65388.695   -8032273.2    720476.17    1.1466208     69.90094     69.90094    147.45299 
   16800    73011    299.51187   -1291.5884   -8097666.9    65182.452   -8032484.4    721099.23    1.1456301    69.922768    69.922768    147.48838 
   16900    73011    298.85988   -1347.1991   -8097438.8    65040.559   -8032398.2    721033.29    1.1457348    69.911185    69.911185    147.52377 
   17000    73011    299.55357   -2587.3761   -8097174.7    65191.525   -8031983.2    721080.53    1.1456598    69.905092    69.905092    147.55915 
   17100    73011    300.28419   -1350.5932   -8097150.7     65350.53   -8031800.2    720696.46    1.1462703    69.878094    69.878094    147.59454 
   17200    73011    301.35167    -366.3112   -8097528.5    65582.845   -8031945.6    720270.94    1.1469475    69.849089    69.849089    147.62992 
   17300    73011     299.4046    118.75631   -8097413.5    65159.105   -8032254.4    720348.54     1.146824    69.844482    69.844482    147.66531 
   17400    73011    300.40745   -1676.5605   -8097639.1    65377.356   -8032261.7    720807.43    1.1460938    69.858356    69.858356     147.7007 
   17500    73011    298.80628   -180.97847   -8097200.4    65028.893   -8032171.5    720983.46     1.145814    69.858517    69.858517    147.73608 
   17600    73011    299.54147   -1187.4766   -8097087.3    65188.893   -8031898.4     721540.8     1.144929    69.877145    69.877145    147.77147 
   17700    73011    300.49962   -632.67753   -8097258.4    65397.413     -8031861    721519.83    1.1449622    69.867765    69.867765    147.80685 
   17800    73011    299.07091   -524.82003   -8097137.8    65086.486   -8032051.3    721576.58    1.1448722     69.86215     69.86215    147.84224 
   17900    73011    299.79917   -937.19473     -8097533    65244.976   -8032288.1    722006.12    1.1441911    69.874579    69.874579    147.87763 
   18000    73011    299.68175    -623.6596   -8097338.7    65219.422   -8032119.2    721935.72    1.1443027    69.862814    69.862814    147.91301 
   18100    73011     301.2546   -992.64606   -8097216.9     65561.72   -8031655.2    721603.35    1.1448297    69.838377    69.838377     147.9484 
   18200    73011    301.96082   -953.74013   -8097391.3    65715.414   -8031675.9    721266.21    1.1453648    69.813712    69.813712    147.98378 
   18300    73011    300.18194    586.90519   -8097288.4    65328.279   -8031960.1     721395.7    1.1451593    69.811633    69.811633    148.01917 
   18400    73011    300.45461    189.28256   -8097578.7    65387.618     -8032191    721584.52    1.1448596    69.812424    69.812424    148.05455 
   18500    73011    299.09926   -824.54255   -8097468.7    65092.656   -8032376.1    721279.05    1.1453445    69.789306    69.789306    148.08994 
   18600    73011    299.61732    -1447.781   -8097482.5      65205.4   -8032277.1    721446.96    1.1450779    69.789091    69.789091    148.12533 
   18700    73011    300.73114   -570.53857   -8097388.5    65447.799   -8031940.7    721375.66    1.1451911    69.777308    69.777308    148.16071 
   18800    73011    301.25516   -218.48881   -8097097.9    65561.841   -8031536.1    721835.04    1.1444623    69.791189    69.791189     148.1961 
   18900    73011    301.60663    -1005.682   -8097038.2    65638.332   -8031399.9    722062.16    1.1441023    69.793835    69.793835    148.23148 
   19000    73011    299.68488   -1982.2662   -8097215.5    65220.102   -8031995.4    722271.99    1.1437699    69.795646    69.795646    148.26687 
   19100    73011    300.71947   -714.40367     -8097594    65445.259   -8032148.8     722352.1    1.1436431    69.791188    69.791188    148.30226 
   19200    73011    298.69773   -1361.5533   -8097317.8    65005.272   -8032312.5    722397.43    1.1435713    69.785053    69.785053    148.33764 
   19300    73011    299.58626   -1348.0139   -8097448.9     65198.64   -8032250.2    722179.81    1.1439159     69.76622     69.76622    148.37303 
   19400    73011    300.73515   -1150.8679     -8097339    65448.673   -8031890.4    722693.64    1.1431026    69.782714    69.782714    148.40841 
   19500    73011    301.87778   -868.74647   -8097319.7    65697.342   -8031622.3    722220.38    1.1438516    69.751546    69.751546     148.4438 
   19600    73011     299.4563   -703.91699   -8097022.7    65170.357   -8031852.3     721806.5    1.1445075    69.723247    69.723247    148.47919 
   19700    73011    298.88457   -594.95779   -8097386.3    65045.932   -8032340.3    721703.12    1.1446715    69.709948    69.709948    148.51457 
   19800    73011    299.13542   -1424.6733   -8097387.4    65100.526   -8032286.9    721836.83    1.1444594    69.708101    69.708101    148.54996 
   19900    73011    299.96465   -602.72843   -8097440.9     65280.99   -8032159.9    721486.98    1.1450144    69.682907    69.682907    148.58534 
   20000    73011    300.34778    -178.9182   -8097505.1     65364.37   -8032140.7       721522    1.1449588    69.676302    69.676302    148.62073 
   20100    73011     300.4176   -348.75184   -8097510.8    65379.565   -8032131.2    721331.22    1.1452616    69.658798    69.658798    148.65611 
   20200    73011    300.99612    1190.5706   -8097585.1    65505.468   -8032079.6     721372.5    1.1451961    69.652502    69.652502     148.6915 
   20300    73011    299.87708   -625.67183   -8097546.6    65261.933   -8032284.6    721989.34    1.1442177    69.673985    69.673985    148.72689 
   20400    73011    299.39138    196.60583   -8097542.7    65156.228   -8032386.5    722316.44    1.1436995    69.681477    69.681477    148.76227 
   20500    73011    299.80885    -1994.306   -8097573.8    65247.083   -8032326.7    722542.24    1.1433421     69.68408     69.68408    148.79766 
   20600    73011    299.52338   -1356.1645   -8097481.2    65184.956   -8032296.3     722826.3    1.1428928    69.689491    69.689491    148.83304 
   20700    73011    298.60027   -966.56952   -8097381.2    64984.061   -8032397.1    722919.72    1.1427451     69.68571     69.68571    148.86843 
   20800    73011    299.28046   -309.11507     -8097475    65132.089   -8032342.9    722805.63    1.1429255    69.671932    69.671932    148.90382 
   20900    73011    299.78354   -2210.8838   -8097292.6    65241.575     -8032051     722654.3    1.1431648    69.656361    69.656361     148.9392 
   21000    73011    299.57002   -909.17388   -8097034.2    65195.106   -8031839.1    722458.25     1.143475     69.63864     69.63864    148.97459 
   21100    73011    300.05131   -768.39886   -8097221.4    65299.849   -8031921.6    722296.97    1.1437304    69.622598    69.622598    149.00997 
   21200    73011    300.48198   -1463.4946   -8097813.1    65393.575   -8032419.5    721977.01    1.1442372    69.598913    69.598913    149.04536 
   21300    73011    299.62831   -696.20924   -8097787.1    65207.791   -8032579.3    721986.64    1.1442219    69.591116    69.591116    149.08075 
   21400    73011    298.96651   -318.09401   -8097393.5    65063.765   -8032329.8    722356.35    1.1436363    69.600672    69.600672    149.11613 
   21500    73011    299.62504   -310.49521   -8097164.9     65207.08   -8031957.8    722659.18    1.1431571    69.607001    69.607001    149.15152 
   21600    73011    299.93075   -198.00403   -8097261.1    65273.612   -8031987.5    723075.31    1.1424992    69.618782    69.618782     149.1869 
   21700    73011    300.18487    -282.0206     -8097488    65328.915   -8032159.1    723695.29    1.1415204    69.640363    69.640363    149.22229 
   21800    73011    299.61466   -1935.3175   -8097612.2    65204.821   -8032407.4    724120.31    1.1408504    69.652551    69.652551    149.25767 
   21900    73011    299.45267   -184.15716   -8097675.3    65169.568   -8032505.8     724218.4    1.1406959    69.649013    69.649013    149.29306 
   22000    73011    300.05873    -1117.666   -8097579.9    65301.464   -8032278.4    724431.96    1.1403596    69.651027    69.651027    149.32845 
   22100    73011    300.95097    739.14219   -8097392.3    65495.642   -8031896.6    724419.95    1.1403785    69.642199    69.642199    149.36383 
   22200    73011    300.03471    746.47704   -8097263.3    65296.237     -8031967    724317.58    1.1405397    69.629031    69.629031    149.39922 
   22300    73011     299.4244   -1541.4654   -8097455.4    65163.416     -8032292    724670.63     1.139984    69.637752    69.637752     149.4346 
   22400    73011    299.41838   -330.78324   -8097613.1    65162.106     -8032451    724696.69    1.1399431     69.63076     69.63076    149.46999 
   22500    73011    299.09347   -1566.8701   -8097489.7    65091.396   -8032398.3     725140.4    1.1392455     69.64383     69.64383    149.50538 
   22600    73011    299.55104     -708.126   -8096951.4    65190.976   -8031760.4    725184.16    1.1391768     69.63769     69.63769    149.54076 
   22700    73011    301.39686    406.46638     -8097100    65592.679   -8031507.3    725019.45    1.1394356    69.621545    69.621545    149.57615 
   22800    73011    301.60046   -25.534706   -8097331.2    65636.989   -8031694.2    725296.81    1.1389999    69.626626    69.626626    149.61153 
   22900    73011    301.38702   -1660.5776   -8097613.9    65590.539   -8032023.4    725682.41    1.1383946    69.636896    69.636896    149.64692 
   23000    73011     299.8381   -99.261704   -8097334.1    65253.448   -8032080.6    724772.98    1.1398231    69.585022    69.585022    149.68231 
   23100    73011    299.37216   -538.37245   -8097198.1    65152.045   -8032046.1    724840.49    1.1397169    69.580038    69.580038    149.71769 
   23200    73011    301.28046    374.76277   -8097436.3    65567.348   -8031868.9    724824.02    1.1397428    69.571026    69.571026    149.75308 
   23300    73011    301.83703   -505.88114   -8097447.1    65688.473   -8031758.6    724489.04    1.1402698    69.546732    69.546732    149.78846 
   23400    73011     300.1213   -109.65216   -8097230.8    65315.081   -8031915.7    724425.66    1.1403696    69.535477    69.535477    149.82385 
   23500    73011    299.14332    467.52658   -8097363.1    65102.245   -8032260.8    724505.17    1.1402444    69.531082    69.531082    149.85923 
   23600    73011    299.24438   -520.12377   -8097426.9    65124.238   -8032302.7    725129.84    1.1392621     69.55284     69.55284    149.89462 
   23700    73011    300.53763   -583.89111   -8097428.6    65405.687   -8032022.9    724910.65    1.1396066     69.53412     69.53412    149.93001 
   23800    73011    301.16357   -1333.3878   -8096974.6    65541.909   -8031432.7    724745.16    1.1398668    69.517979    69.517979    149.96539 
   23900    73011    300.14505   -1503.8074   -8096941.2     65320.25   -8031620.9    724754.24    1.1398525    69.510214    69.510214    150.00078 
   24000    73011    299.84712    68.215382   -8097249.8    65255.412   -8031994.3    724414.78    1.1403867    69.485738    69.485738    150.03616 
   24100    73011    301.18079   -871.86739   -8097703.1    65545.658   -8032157.5    724895.34    1.1396307    69.500587    69.500587    150.07155 
   24200    73011    298.97946   -2795.2203   -8097388.8    65066.584   -8032322.2    725353.76    1.1389104    69.514364    69.514364    150.10694 
   24300    73011    300.47194   -102.02466   -8097485.4    65391.391     -8032094    725038.91     1.139405    69.491085    69.491085    150.14232 
   24400    73011    301.24845   -605.28005   -8097188.7    65560.381   -8031628.3    725222.83     1.139116     69.49171     69.49171    150.17771 
   24500    73011    300.84402   -874.89754     -8097190    65472.367   -8031717.6    725590.29    1.1385392    69.501125    69.501125    150.21309 
   24600    73011    299.99784   -2108.4462   -8097382.4    65288.212   -8032094.2    725889.31    1.1380702    69.507258    69.507258    150.24848 
   24700    73011    300.82736   -855.01912     -8097770     65468.74   -8032301.3    725432.24    1.1387872     69.47719     69.47719    150.28387 
   24800    73011    300.16673   -601.36123   -8097578.8    65324.968   -8032253.9    725480.89    1.1387109    69.471342    69.471342    150.31925 
   24900    73011    299.38354   -1158.5386   -8097141.2    65154.522   -8031986.7    725976.08    1.1379341    69.486869    69.486869    150.35464 
   25000    73011    300.51146   -854.52413   -8096875.4    65399.991   -8031475.5    726548.61    1.1370374    69.506085    69.506085    150.39002 
   25100    73011     301.3534   -1926.9421   -8096985.9    65583.221   -8031402.7    726667.42    1.1368515    69.503591    69.503591    150.42541 
   25200    73011    299.65425   -983.82247   -8096762.7    65213.437   -8031549.2    726615.59    1.1369326    69.492939    69.492939    150.46079 
   25300    73011    300.45456   -718.57541   -8097012.8    65387.608   -8031625.2     726603.5    1.1369515    69.484191    69.484191    150.49618 
   25400    73011    299.85064   -386.14548   -8097236.5    65256.177   -8031980.3     726146.7    1.1376668    69.454181    69.454181    150.53157 
   25500    73011    299.35936   -2865.3322   -8097303.8    65149.261   -8032154.5    726115.25     1.137716    69.444515    69.444515    150.56695 
   25600    73011    298.98123   -1534.4127   -8097280.2    65066.969   -8032213.3    725722.97     1.138331    69.417597    69.417597    150.60234 
   25700    73011    300.08828   -1770.6864   -8097608.9    65307.895     -8032301    725378.57    1.1388715    69.392972    69.392972    150.63772 
   25800    73011    299.44825   -1219.4778   -8097545.2    65168.607   -8032376.6     725236.7    1.1390943    69.378038    69.378038    150.67311 
   25900    73011    299.97713   -1784.6738   -8097282.9    65283.706   -8031999.1    725406.49    1.1388276    69.378012    69.378012     150.7085 
   26000    73011    300.26928   -685.33774   -8097104.4    65347.285   -8031757.2    724937.04    1.1395651    69.347418    69.347418    150.74388 
   26100    73011    300.96651   -537.13488   -8097254.2    65499.022   -8031755.2     725070.9    1.1393547    69.345682    69.345682    150.77927 
   26200    73011    298.96196   -1712.8827   -8097237.9    65062.774   -8032175.1    725653.37    1.1384402    69.365391    69.365391    150.81465 
   26300    73011    298.69586   -614.22483   -8097386.1    65004.864   -8032381.2    726070.57    1.1377861    69.377189    69.377189    150.85004 
   26400    73011    300.05295   -1718.1792   -8097449.5    65300.206   -8032149.3    726448.94    1.1371934    69.387126    69.387126    150.88543 
   26500    73011    298.81174   -1572.9628   -8096936.8    65030.082   -8031906.7    726329.58    1.1373803    69.373292    69.373292    150.92081 
   26600    73011    299.46869   -419.86864   -8097036.3    65173.053   -8031863.2     726441.4    1.1372052    69.370499    69.370499     150.9562 
   26700    73011    299.59983   -1744.1528     -8097214    65201.594   -8032012.4     726992.3    1.1363435    69.388666    69.388666    150.99158 
   26800    73011    299.44962    -1247.584   -8097244.1    65168.905   -8032075.2    727089.35    1.1361918    69.385167    69.385167    151.02697 
   26900    73011    298.72121   -871.15495   -8097130.4     65010.38     -8032120    727394.11    1.1357158    69.391578    69.391578    151.06235 
   27000    73011    300.21011   -604.72841   -8097275.1    65334.408   -8031940.7    727411.15    1.1356892    69.384265    69.384265    151.09774 
   27100    73011    300.82571   -876.10698   -8097233.9     65468.38   -8031765.5    727874.39    1.1349664    69.398229    69.398229    151.13313 
   27200    73011    300.56822   -889.74173     -8097164    65412.344   -8031751.6    727409.43    1.1356919    69.367939    69.367939    151.16851 
   27300    73011    300.09288   -1258.5021   -8097242.3    65308.897   -8031933.4    727093.81    1.1361848    69.344773    69.344773     151.2039 
   27400    73011    299.40975   -865.09142   -8097428.7    65160.227   -8032268.5    727006.98    1.1363205     69.33252     69.33252    151.23928 
   27500    73011    299.15806    437.76194   -8097457.4    65105.453   -8032351.9    726553.39    1.1370299    69.302781    69.302781    151.27467 
   27600    73011     300.4105   -565.85593   -8097210.4    65378.019   -8031832.4    726563.69    1.1370138    69.295167    69.295167    151.31006 
   27700    73011     299.4571   -1387.2467   -8096825.1    65170.532   -8031654.6    726593.17    1.1369677    69.288472    69.288472    151.34544 
   27800    73011    300.02031   -1225.6202   -8096934.9    65293.103   -8031641.8    726238.76    1.1375225    69.263475    69.263475    151.38083 
   27900    73011    299.58537    -367.9076   -8097099.2    65198.448   -8031900.7    725914.02    1.1380314    69.239895    69.239895    151.41621 
   28000    73011    300.26195    -2407.722   -8097502.4    65345.691   -8032156.7    725883.36    1.1380795    69.230344    69.230344     151.4516 
   28100    73011    301.68195    57.617273   -8097777.5    65654.723   -8032122.7    726129.07    1.1376944    69.233972    69.233972    151.48699 
   28200    73011     301.4771    786.32258   -8097339.8    65610.141   -8031729.7    726178.56    1.1376169    69.228246    69.228246    151.52237 
   28300    73011    300.10404   -182.95339   -8096977.8    65311.325   -8031666.5    726165.58    1.1376372    69.219546    69.219546    151.55776 
   28400    73011    298.74618   -1613.5862     -8097029    65015.815   -8032013.2    726485.09    1.1371368    69.226691    69.226691    151.59314 
   28500    73011     298.5408   -1624.0801   -8097070.8    64971.118   -8032099.7    726545.79    1.1370418    69.221504    69.221504    151.62853 
   28600    73011    300.57798    394.13422   -8097126.7    65414.468   -8031712.2    726394.53    1.1372786    69.206223    69.206223    151.66392 
   28700    73011    301.64311   -1325.9262   -8097187.4    65646.271   -8031541.1    726655.91    1.1368695      69.2106      69.2106     151.6993 
   28800    73011    301.57709   -1424.2811   -8097335.7    65631.903   -8031703.7    726705.79    1.1367915    69.204905    69.204905    151.73469 
   28900    73011    300.41574    1223.4178   -8097260.5     65379.16   -8031881.3     726713.8     1.136779    69.197218    69.197218    151.77007 
   29000    73011    299.85356   -1529.3065     -8097324    65256.814   -8032067.2    726769.32    1.1366921    69.191795    69.191795    151.80546 
   29100    73011    298.71373     80.19897   -8097209.6    65008.752   -8032200.9    726751.31    1.1367203    69.182875    69.182875    151.84084 
   29200    73011    300.02772   -1425.8953   -8097413.7    65294.715     -8032119    727142.95    1.1361081    69.193452    69.193452    151.87623 
   29300    73011    299.92179   -41.717892   -8096943.6    65271.662     -8031672    727078.61    1.1362086    69.182331    69.182331    151.91162 
   29400    73011    300.34635   -213.38118   -8096901.3    65364.059   -8031537.3    727216.07    1.1359938    69.180814    69.180814      151.947 
   29500    73011    299.04333   -1680.3364   -8096798.4    65080.483   -8031717.9    727680.45    1.1352689    69.194842    69.194842    151.98239 
   29600    73011    298.33343   -992.52536   -8097109.1    64925.989   -8032183.1    727573.09    1.1354364    69.181684    69.181684    152.01777 
   29700    73011    297.93861    43.385946   -8097148.1    64840.063     -8032308    727541.67    1.1354854     69.17214     69.17214    152.05316 
   29800    73011    299.26364   -1424.8225   -8097245.6    65128.429   -8032117.1    727897.67    1.1349301    69.181012    69.181012    152.08855 
   29900    73011    299.11333   -788.63034   -8097047.7    65095.717     -8031952    728214.94    1.1344356    69.188039    69.188039    152.12393 
   30000    73011    299.39255   -384.97577   -8096854.3    65156.483   -8031697.8    728248.91    1.1343827    69.181607    69.181607    152.15932 
   30100    73011    300.71013   -1226.6078   -8096954.8    65443.227   -8031511.6    728275.63    1.1343411    69.174833    69.174833     152.1947 
   30200    73011    300.73481   -1016.0023   -8097036.7    65448.598   -8031588.1    728347.58     1.134229    69.170209    69.170209    152.23009 
   30300    73011    300.79439   -322.26301   -8097135.6    65461.565     -8031674     728550.2    1.1339136    69.171791    69.171791    152.26548 
   30400    73011    299.60221   -467.99843   -8096977.2    65202.112   -8031775.1    728363.52    1.1342042    69.154893    69.154893    152.30086 
   30500    73011    300.36959   -1902.4693   -8097322.4    65369.116   -8031953.3    727881.59    1.1349552    69.123981    69.123981    152.33625 
   30600    73011    298.95905   -1423.7886   -8097325.4    65062.141   -8032263.3    727303.98    1.1358565    69.088525    69.088525    152.37163 
   30700    73011    298.87298   -1274.8965   -8097498.9     65043.41   -8032455.5    726767.98    1.1366942    69.055045    69.055045    152.40702 
   30800    73011    299.15695   -308.46197   -8097054.5    65105.211   -8031949.3     726109.6    1.1377249    69.015747    69.015747     152.4424 
   30900    73011     300.2498   -1036.8268   -8097013.8    65343.045   -8031670.7    725648.83    1.1384473     68.98584     68.98584    152.47779 
   31000    73011    299.79254   -604.72794   -8097034.6    65243.534     -8031791    725773.72    1.1382514    68.983772    68.983772    152.51318 
   31100    73011    298.67258   -1304.0557     -8097019    64999.797   -8032019.2    726184.22     1.137608    68.995274    68.995274    152.54856 
   31200    73011    299.92883   -597.94501   -8097386.7    65273.194   -8032113.5     726568.1    1.1370069    69.005505    69.005505    152.58395 
   31300    73011    299.83262   -1244.3796     -8097332    65252.257   -8032079.8    727172.49    1.1360619    69.026196    69.026196    152.61933 
   31400    73011    300.20653    739.59304   -8097257.2     65333.63   -8031923.6    727636.75     1.135337    69.040225    69.040225    152.65472 
   31500    73011    300.33938   -1479.4687   -8097126.6    65362.542   -8031764.1    728208.45    1.1344457    69.059338    69.059338    152.69011 
   31600    73011    301.00438   -893.66534   -8097128.5    65507.265   -8031621.2    728681.21    1.1337097    69.073747    69.073747    152.72549 
   31700    73011    300.98976   -950.25707   -8097025.8    65504.083   -8031521.7     728758.9    1.1335888    69.069429    69.069429    152.76088 
   31800    73011    301.13845   -1298.5791   -8097099.4    65536.442     -8031563    728704.83     1.133673    69.058868    69.058868    152.79626 
   31900    73011    301.15341   -2100.3355   -8097503.5    65539.698   -8031963.8    728701.98    1.1336774    69.050738    69.050738    152.83165 
   32000    73011    300.10504    445.81079   -8097472.7    65311.542   -8032161.2    728414.13    1.1341254    69.029108    69.029108    152.86704 
   32100    73011    299.43596     -1473.19   -8097155.4    65165.931   -8031989.5    728052.68    1.1346885    69.003993    69.003993    152.90242 
   32200    73011    300.21088   -1999.8025   -8096992.1    65334.576   -8031657.6    727932.92    1.1348751    68.990334    68.990334    152.93781 
   32300    73011    301.58044   -351.31893   -8097151.9    65632.632   -8031519.2    727555.92    1.1354632    68.964489    68.964489    152.97319 
   32400    73011    298.00203   -2614.9239   -8096815.7    64853.867   -8031961.9    727543.74    1.1354822    68.955937    68.955937    153.00858 
   32500    73011    298.87925   -1183.8107   -8097259.3    65044.774   -8032214.5    727546.71    1.1354776    68.948105    68.948105    153.04396 
   32600    73011     299.1051    723.17169   -8097107.3    65093.927   -8032013.3     727084.8    1.1361989    68.918248    68.918248    153.07935 
   32700    73011    301.28047   -1348.2995   -8097206.3    65567.351     -8031639    727265.78    1.1359162     68.91886     68.91886    153.11474 
   32800    73011    301.33012   -1994.2873   -8097120.7    65578.154   -8031542.5    727680.84    1.1352683    68.930558    68.930558    153.15012 
   32900    73011    300.19949   -772.73021   -8097282.4    65332.097   -8031950.3    727846.28    1.1350102    68.930431    68.930431    153.18551 
   33000    73011    300.71694   -688.22213   -8097638.3    65444.709   -8032193.6    728360.44     1.134209     68.94681     68.94681    153.22089 
   33100    73011    299.49341   -247.02513   -8097371.2    65178.434   -8032192.8    729069.75    1.1331055     68.97241     68.97241    153.25628 
   33200    73011    299.52735    -1518.889   -8097045.6    65185.821   -8031859.7    729766.06    1.1320244    68.997373    68.997373    153.29167 
   33300    73011    300.82372   -344.24133     -8097094    65467.949     -8031626    730020.42    1.1316299    69.001433    69.001433    153.32705 
   33400    73011    300.79685   -2300.0541   -8097231.9    65462.099   -8031769.8    730528.67    1.1308426    69.017485    69.017485    153.36244 
   33500    73011    300.12332   -465.95179     -8097219    65315.521   -8031903.5    730728.69    1.1305331    69.018971    69.018971    153.39782 
   33600    73011    299.80886   -631.22355   -8097240.1    65247.086     -8031993    730810.99    1.1304058    69.014898    69.014898    153.43321 
   33700    73011    297.24301   -1971.0229   -8097284.5    64688.681   -8032595.8    730779.27    1.1304548    69.005443    69.005443     153.4686 
   33800    73011    299.04543   -1303.8088   -8097684.6    65080.941   -8032603.6    731253.88    1.1297211    69.019891    69.019891    153.50398 
   33900    73011    299.14844   -1112.4694   -8097214.2    65103.359   -8032110.8    731107.83    1.1299468    69.005045    69.005045    153.53937 
   34000    73011    299.91798   -1876.7622   -8097099.7    65270.833   -8031828.8    731347.15    1.1295771    69.008387    69.008387    153.57475 
   34100    73011    300.14836    444.79648   -8097123.3     65320.97   -8031802.3    731135.12    1.1299046    68.990435    68.990435    153.61014 
   34200    73011    299.54731   -1845.0631   -8097254.4    65190.164   -8032064.2    731468.84    1.1293891    68.998231    68.998231    153.64552 
   34300    73011    298.52006    110.35307   -8097245.1    64966.604   -8032278.5    731352.09    1.1295694    68.984781    68.984781    153.68091 
   34400    73011    299.25359    33.776521   -8097078.6    65126.242   -8031952.4    731307.73    1.1296379    68.974749    68.974749     153.7163 
   34500    73011    301.00466   -824.94245   -8096993.3    65507.327     -8031486    731568.83    1.1292348    68.979122    68.979122    153.75168 
   34600    73011    299.99517    1908.3748   -8096828.8    65287.632   -8031541.2    731243.38    1.1297374    68.955842    68.955842    153.78707 
   34700    73011    300.52081   -145.59649   -8097234.2    65402.026   -8031832.1    731315.83    1.1296254    68.951325    68.951325    153.82245 
   34800    73011    300.17066   -990.46343   -8097391.2    65325.823   -8032065.3    731220.47    1.1297728    68.938901    68.938901    153.85784 
   34900    73011    299.31127    -927.3421   -8097108.9    65138.796   -8031970.1     731077.6    1.1299935     68.92424     68.92424    153.89323 
   35000    73011    301.37519    -1200.361   -8097303.2    65587.965   -8031715.2    730808.41    1.1304098    68.903628    68.903628    153.92861 
   35100    73011    299.42205    -910.0051   -8096891.9    65162.905     -8031729    730993.94    1.1301229    68.904454    68.904454      153.964 
   35200    73011    299.32939   -1672.8652   -8096827.5    65142.739   -8031684.8    731521.32    1.1293081    68.921386    68.921386    153.99938 
   35300    73011    300.00532   -573.59882   -8096794.1     65289.84   -8031504.2       731731    1.1289845    68.923345    68.923345    154.03477 
   35400    73011    299.38819   -1489.6552   -8096649.4    65155.536   -8031493.8    731964.89    1.1286238    68.926443    68.926443    154.07016 
   35500    73011    298.86858   -1808.9287   -8096935.3    65042.452   -8031892.9    732134.64    1.1283621     68.92652     68.92652    154.10554 
   35600    73011    299.49969   -1677.3429     -8097254      65179.8   -8032074.2    732514.88    1.1277764    68.936502    68.936502    154.14093 
   35700    73011    300.51837   -1091.2776   -8097255.5    65401.494     -8031854    733127.79    1.1268335    68.957421    68.957421    154.17631 
   35800    73011    299.94834   -1748.9598   -8096788.1    65277.439   -8031510.6    733224.34    1.1266851     68.95405     68.95405     154.2117 
   35900    73011    300.83487   -752.55887   -8096961.6    65470.374   -8031491.2    733396.58    1.1264205    68.954237    68.954237    154.24708 
   36000    73011    300.06731    440.87662   -8096815.2    65303.331   -8031511.9    733183.61    1.1267477    68.936318    68.936318    154.28247 
   36100    73011    300.10253    743.77801   -8096836.3    65310.995   -8031525.3    732889.34    1.1272001     68.91458     68.91458    154.31786 
   36200    73011    300.49685   -846.43945   -8096979.8    65396.811     -8031583    733556.05    1.1261757    68.938015    68.938015    154.35324 
   36300    73011    298.95976   -1375.1601   -8096961.5    65062.297   -8031899.2    733546.93    1.1261896    68.929686    68.929686    154.38863 
   36400    73011    298.76426   -1612.3612   -8097089.7     65019.75   -8032069.9    732757.15    1.1274035    68.884675    68.884675    154.42401 
   36500    73011     298.7299   -1268.7692   -8096882.8    65012.272   -8031870.5     732279.1    1.1281395    68.854312    68.854312     154.4594 
   36600    73011    301.09751    389.05823   -8096881.1    65527.532   -8031353.6    731361.58    1.1295548    68.803283    68.803283    154.49479 
   36700    73011    299.44026     100.5502   -8096642.6    65166.866   -8031475.8    731159.71    1.1298666    68.785909    68.785909    154.53017 
   36800    73011    299.53687   -388.14709   -8096922.9    65187.892     -8031735    731354.82    1.1295652    68.787211    68.787211    154.56556 
   36900    73011    299.82408   -28.366349   -8097166.3    65250.397   -8031915.9    731641.93     1.129122    68.792837    68.792837    154.60094 
   37000    73011    298.99148    1228.0984     -8097010    65069.199   -8031940.8    731873.73    1.1287643    68.795862    68.795862    154.63633 
   37100    73011    299.83009   -1254.8808   -8097008.1    65251.704   -8031756.4    732168.03    1.1283106    68.801821    68.801821    154.67172 
   37200    73011    300.67831    -2105.609   -8097042.1    65436.302   -8031605.8    732143.84    1.1283479    68.792815    68.792815     154.7071 
   37300    73011    299.04325   -1300.9348   -8096762.8    65080.466   -8031682.3    732019.99    1.1285388    68.779131    68.779131    154.74249 
   37400    73011    298.66218    579.77327   -8097104.5    64997.535     -8032107    732119.15     1.128386    68.775926    68.775926    154.77787 
   37500    73011    298.36652   -174.92432   -8097229.1     64933.19     -8032296    732642.38    1.1275801    68.792635    68.792635    154.81326 
   37600    73011    298.13587    103.92325   -8096847.4    64882.995   -8031964.4    733228.75    1.1266784    68.812294    68.812294    154.84864 
   37700    73011     299.5013    -634.9327   -8096773.5     65180.15   -8031593.3    733251.97    1.1266427    68.805523    68.805523    154.88403 
   37800    73011    300.56387   -1302.3307     -8096966    65411.397   -8031554.6    732892.53    1.1271952      68.7808      68.7808    154.91942 
   37900    73011    300.02418   -330.73059   -8096845.9    65293.945     -8031552    733088.37    1.1268941    68.782134    68.782134     154.9548 
   38000    73011    300.10876   -1267.7017   -8097087.9    65312.351   -8031775.5    733304.69    1.1265617    68.784428    68.784428    154.99019 
   38100    73011    297.78211   -231.64007     -8096842    64806.006     -8032036    732835.35    1.1272832    68.754564    68.754564    155.02557 
   38200    73011     299.5181   -1853.9764   -8096955.2    65183.806   -8031771.4    732603.28    1.1276403    68.735832    68.735832    155.06096 
   38300    73011    300.05148       -659.4   -8096712.4    65299.886   -8031412.5    732361.98    1.1280118    68.716671    68.716671    155.09635 
   38400    73011    300.23533   -1527.5039   -8096781.9    65339.898     -8031442     732487.8    1.1278181    68.714735    68.714735    155.13173 
   38500    73011    299.96732    111.39633   -8096904.7     65281.57   -8031623.2    732331.52    1.1280587     68.69957     68.69957    155.16712 
   38600    73011    300.09417    43.055492   -8097008.5    65309.177   -8031699.4    732694.71    1.1274996    68.708769    68.708769     155.2025 
   38700    73011     299.9404   -1944.1008   -8097003.1    65275.712   -8031727.4    733090.76    1.1268904    68.719503    68.719503    155.23789 
   38800    73011    299.31893    -271.9043     -8097206    65140.461   -8032065.6    733093.47    1.1268863    68.711799    68.711799    155.27328 
   38900    73011    298.22177   -3278.6513   -8097231.4    64901.687   -8032329.7     732869.5    1.1272307    68.693475    68.693475    155.30866 
   39000    73011    300.00575   -2377.5742   -8097244.5    65289.933   -8031954.6    732757.09    1.1274036    68.680383    68.680383    155.34405 
   39100    73011    300.04808   -1426.2423   -8096961.3    65299.147   -8031662.1    733047.59    1.1269568    68.686173    68.686173    155.37943 
   39200    73011     299.2862    121.93082   -8096760.4     65133.34   -8031627.1    733184.43    1.1267465    68.684763    68.684763    155.41482 
   39300    73011     300.9772   -184.12056   -8097175.5     65501.35   -8031674.1    732579.48    1.1276769    68.648606    68.648606    155.45021 
   39400    73011    299.51527    1602.2349   -8097121.9    65183.192   -8031938.7    732614.83    1.1276225    68.642451    68.642451    155.48559 
   39500    73011    297.89156    -1570.842     -8097136    64829.825   -8032306.2    733174.51    1.1267617    68.660853    68.660853    155.52098 
   39600    73011    299.95392   -393.61313   -8097356.6    65278.653   -8032077.9    733264.75     1.126623    68.657267    68.657267    155.55636 
   39700    73011    299.91789   -778.06291   -8097005.5    65270.812   -8031734.7    733378.02     1.126449    68.654762    68.654762    155.59175 
   39800    73011    300.85233   -170.46152   -8097171.1    65474.173   -8031696.9    733235.03    1.1266687    68.640264    68.640264    155.62713 
   39900    73011    301.28633   -1077.3484   -8097367.4    65568.625   -8031798.8    733596.32    1.1261138    68.649368    68.649368    155.66252 
   40000    73011    299.56579     466.9335   -8097159.1    65194.185   -8031964.9    733648.12    1.1260343     68.64399     68.64399    155.69791 
   40100    73011    300.81559   -2284.3158   -8097147.4    65466.179   -8031681.2    734304.26    1.1250281    68.666876    68.666876    155.73329 
   40200    73011    301.22072   -1196.5253   -8096785.1    65554.346   -8031230.7     734491.8    1.1247409    68.667843    68.667843    155.76868 
   40300    73011    299.81803   -492.89008   -8096565.6    65249.081   -8031316.5    734898.22    1.1241189    68.679038    68.679038    155.80406 
   40400    73011     299.7018   -1335.1122   -8096727.4    65223.786   -8031503.6    735313.44    1.1234841    68.690638    68.690638    155.83945 
   40500    73011    298.60382   -646.68895     -8096737    64984.834   -8031752.2    735406.65    1.1233417    68.687194    68.687194    155.87484 
   40600    73011    298.06975    -933.0417   -8097107.5    64868.604   -8032238.9    735186.48    1.1236781    68.669117    68.669117    155.91022 
   40700    73011    298.49587     513.9269   -8096962.5    64961.341   -8032001.2    734908.09    1.1241038    68.648324    68.648324    155.94561 
   40800    73011    299.73055   -719.12036   -8096920.7    65230.042   -8031690.7    734612.01    1.1245568    68.626709    68.626709    155.98099 
   40900    73011    299.50506   -303.69326   -8096883.6    65180.969   -8031702.6    734256.29    1.1251016     68.60231     68.60231    156.01638 
   41000    73011    300.05583   -877.27028   -8096959.1    65300.834   -8031658.3    734038.71    1.1254351    68.584368    68.584368    156.05177 
   41100    73011    299.69727   -754.85095   -8096558.9      65222.8   -8031336.1    733920.58    1.1256163    68.571075    68.571075    156.08715 
   41200    73011       300.98   -1204.3495     -8096625    65501.958     -8031123    733948.32    1.1255738    68.564599    68.564599    156.12254 
   41300    73011    299.62836   -822.77801   -8096705.8    65207.803     -8031498    734253.95    1.1251052    68.571103    68.571103    156.15792 
   41400    73011    299.75444    187.84892   -8096972.7    65235.242   -8031737.5    734678.74    1.1244547    68.583165    68.583165    156.19331 
   41500    73011     299.5867   -261.75849   -8096951.9    65198.736   -8031753.2    734518.23    1.1247004    68.567906    68.567906    156.22869 
   41600    73011    299.81976    -1915.853   -8096883.9    65249.456   -8031634.5    734856.78    1.1241823     68.57594     68.57594    156.26408 
   41700    73011    298.74751    57.802146   -8096425.7    65016.105   -8031409.6    734898.06    1.1241191    68.570103    68.570103    156.29947 
   41800    73011    301.59265   -752.12438   -8096755.6    65635.289   -8031120.3    735111.69    1.1237924    68.572307    68.572307    156.33485 
   41900    73011    300.74037   -1429.9098   -8096900.5    65449.809   -8031450.7    735235.43    1.1236033    68.570318    68.570318    156.37024 
   42000    73011      299.195   -2375.8273   -8096920.4    65113.491     -8031807    735382.84    1.1233781    68.569434    68.569434    156.40562 
   42100    73011    299.93903   -943.52678   -8097063.3    65275.413   -8031787.9    735366.47    1.1234031    68.560915    68.560915    156.44101 
   42200    73011     299.6792   -26.378778   -8096783.2    65218.867   -8031564.3    735543.83    1.1231322    68.561429    68.561429     156.4764 
   42300    73011      299.878   -1126.5431   -8096543.3    65262.132   -8031281.1    735571.75    1.1230896    68.554979    68.554979    156.51178 
   42400    73011    300.27911     2.263411   -8096493.4    65349.425     -8031144    735240.35    1.1235958    68.531788    68.531788    156.54717 
   42500    73011    299.79752    199.63906   -8096699.7    65244.617   -8031455.1     735204.5    1.1236506    68.522373    68.522373    156.58255 
   42600    73011    298.97449   -545.56648   -8096876.6    65065.503   -8031811.1    735316.35    1.1234797    68.519843    68.519843    156.61794 
   42700    73011    299.46754   -569.43275   -8096990.4    65172.804   -8031817.6    735229.69    1.1236121    68.508066    68.508066    156.65333 
   42800    73011     300.8979   -1122.2786   -8097080.5    65484.092   -8031596.4    735843.83    1.1226743    68.528933    68.528933    156.68871 
   42900    73011    301.93249   -2235.4584   -8096862.1    65709.249   -8031152.8    735840.49    1.1226794    68.521041    68.521041     156.7241 
   43000    73011     300.9691   -1825.7216   -8096750.9    65499.587   -8031251.3    736012.57    1.1224169    68.521317    68.521317    156.75948 
   43100    73011    300.03873   -440.05243   -8096741.5     65297.11   -8031444.4    735903.62    1.1225831    68.508514    68.508514    156.79487 
   43200    73011    299.77412   -1548.3427   -8096694.8    65239.524   -8031455.2    735410.52    1.1233358    68.477831    68.477831    156.83025 
   43300    73011    301.19143   -1231.5549     -8097014    65547.973   -8031466.1    735204.52    1.1236506    68.460516    68.460516    156.86564 
   43400    73011    300.43691   -2389.2169   -8097051.1    65383.767   -8031667.3    735082.71    1.1238367    68.447125    68.447125    156.90103 
   43500    73011     298.2264   -628.82724   -8097020.9    64902.696   -8032118.2    735080.84    1.1238396    68.439321    68.439321    156.93641 
   43600    73011    299.18093   -837.19825   -8097191.3    65110.429   -8032080.9    735451.98    1.1232725     68.44888     68.44888     156.9718 
   43700    73011    299.98686   -979.56271   -8097153.9    65285.824   -8031868.1    735567.83    1.1230956    68.446556    68.446556    157.00718 
   43800    73011    298.91319   -2318.5522   -8096768.2    65052.162     -8031716    735065.03    1.1238638    68.415449    68.415449    157.04257 
   43900    73011    299.92148   -126.80538   -8096921.7    65271.594   -8031650.1    735096.86    1.1238151    68.409224    68.409224    157.07796 
   44000    73011    300.01541   -185.05814   -8097033.6    65292.037   -8031741.5    734990.41    1.1239779    68.396567    68.396567    157.11334 
   44100    73011     297.7739   -3771.6848   -8097066.3    64804.218   -8032262.1    735451.56    1.1232731    68.410317    68.410317    157.14873 
   44200    73011    297.52857    73.392506   -8097013.7    64750.828   -8032262.8    735736.65    1.1228379    68.415872    68.415872    157.18411 
   44300    73011    299.48674   -2503.0588     -8097046    65176.982   -8031869.1    736802.32    1.1212139    68.457697    68.457697     157.2195 
   44400    73011    299.55419     346.5516   -8096813.2    65191.661   -8031621.5    736845.26    1.1211485    68.451989    68.451989    157.25489 
   44500    73011    300.33337   -1667.7327     -8096701    65361.233   -8031339.8    737096.24    1.1207668    68.455945    68.455945    157.29027 
   44600    73011    300.04639   -143.89281   -8096484.4    65298.778   -8031185.6    737128.17    1.1207182    68.449728    68.449728    157.32566 
   44700    73011    300.90115    -1459.271   -8096589.1    65484.799   -8031104.3    736964.98    1.1209664    68.434455    68.434455    157.36104 
   44800    73011    301.45928   -20.688802   -8097065.8    65606.265   -8031459.6    736981.95    1.1209406     68.42755     68.42755    157.39643 
   44900    73011    298.32893    -1446.483   -8096750.4    64925.009   -8031825.4    737249.97    1.1205331    68.432299    68.432299    157.43181 
   45000    73011    299.28253   -1402.0321   -8096876.6    65132.541   -8031744.1    736981.35    1.1209415    68.412143    68.412143     157.4672 
   45100    73011    300.69946   -2204.1035   -8096874.2    65440.906   -8031433.3    737171.18    1.1206528    68.413267    68.413267    157.50259 
   45200    73011     300.8913   -2525.1518   -8096717.4    65482.655   -8031234.7    737003.84    1.1209073    68.397818    68.397818    157.53797 
   45300    73011    299.16605   -1757.3104   -8096707.7    65107.191   -8031600.5    737103.48    1.1207557    68.394761    68.394761    157.57336 
   45400    73011    298.26304   -1080.2402   -8096853.5    64910.669   -8031942.8    737662.52    1.1199064    68.413011    68.413011    157.60874 
   45500    73011    300.13954   -40.838469   -8097046.3    65319.051   -8031727.3    737805.68    1.1196891     68.41197     68.41197    157.64413 
   45600    73011    299.24934   -982.45234   -8096656.1    65125.318   -8031530.8    738228.63    1.1190476    68.423897    68.423897    157.67952 
   45700    73011    301.00956   -1847.7994   -8096872.5    65508.393   -8031364.1    738506.86     1.118626    68.429112    68.429112     157.7149 
   45800    73011    301.23886   -815.71426   -8097006.8    65558.294   -8031448.5    738522.48    1.1186023     68.42216     68.42216    157.75029 
   45900    73011      300.966   -381.29163   -8097074.3    65498.912   -8031575.3    738642.34    1.1184208    68.420039    68.420039    157.78567 
   46000    73011    299.30249   -2384.4561   -8096736.3    65136.884   -8031599.4    738789.45    1.1181981     68.41918     68.41918    157.82106 
   46100    73011    299.26221   -1900.3171     -8096652    65128.119   -8031523.8    739010.59    1.1178635    68.421749    68.421749    157.85645 
   46200    73011    301.26358   -1733.8202   -8096973.4    65563.674   -8031409.8    739132.02    1.1176798    68.419702    68.419702    157.89183 
   46300    73011    299.49693    375.07308   -8096421.9    65179.201   -8031242.7    739046.02    1.1178099    68.408056    68.408056    157.92722 
   46400    73011     300.6337   -110.61557   -8096548.4    65426.594   -8031121.8    739117.44    1.1177019    68.403699    68.403699     157.9626 
   46500    73011    300.05691   -517.29198   -8096725.9    65301.068   -8031424.8    739031.11    1.1178325    68.392044    68.392044    157.99799 
   46600    73011    299.99084   -528.04717   -8096990.4     65286.69   -8031703.7    739057.45    1.1177926    68.385605    68.385605    158.03337 
   46700    73011    299.94449   -1350.2484   -8096974.9    65276.601   -8031698.3     739127.3     1.117687    68.381181    68.381181    158.06876 
   46800    73011    301.46889   -1084.4977   -8096850.2    65608.356   -8031241.8    738907.79     1.118019    68.363374    68.363374    158.10415 
   46900    73011    300.86388   -292.59617   -8096628.8    65476.688   -8031152.1    738671.95     1.118376    68.344816    68.344816    158.13953 
   47000    73011    300.12913   -1760.5777   -8096566.9    65316.785   -8031250.1    738765.07     1.118235    68.341478    68.341478    158.17492 
   47100    73011    299.98628    -975.1646   -8096605.1    65285.697   -8031319.4    738004.86    1.1193869    68.298667    68.298667     158.2103 
   47200    73011    299.89971    130.60642   -8096731.5    65266.856   -8031464.7    737624.47    1.1199641    68.273429    68.273429    158.24569 
   47300    73011    299.87101   -1520.8556   -8096809.6     65260.61     -8031549    737822.59    1.1196634    68.274964    68.274964    158.28108 
   47400    73011    300.56845   -1623.3223     -8096795    65412.395   -8031382.6     737886.4    1.1195666    68.270285    68.270285    158.31646 
   47500    73011    300.22325   -1072.9486   -8096275.5    65337.267   -8030938.2    738098.97    1.1192442    68.272488    68.272488    158.35185 
   47600    73011    301.20617    200.14347   -8096612.6     65551.18   -8031061.4    738168.55    1.1191387    68.268079    68.268079    158.38723 
   47700    73011    299.98875   -2181.8018   -8096706.3    65286.234     -8031420    738955.68    1.1179466    68.296838    68.296838    158.42262 
   47800    73011    300.52439   -1125.1255   -8096835.9    65402.805   -8031433.1    739238.42     1.117519    68.302275    68.302275    158.45801 
   47900    73011     299.9313   -1476.9413   -8096657.5    65273.731   -8031383.8    739101.82    1.1177255     68.28834     68.28834    158.49339 
   48000    73011    300.12228   -349.75746   -8096677.1    65315.295   -8031361.8    739069.97    1.1177737    68.279247    68.279247    158.52878 
   48100    73011    298.43273   -69.903413   -8096447.5    64947.599   -8031499.9    739180.43    1.1176067    68.276729    68.276729    158.56416 
   48200    73011    298.57735   -471.42575     -8096617    64979.074     -8031638    738969.32    1.1179259    68.259363    68.259363    158.59955 
   48300    73011    299.84607   -720.04662   -8096837.2    65255.183     -8031582    739021.76    1.1178466    68.254171    68.254171    158.63493 
   48400    73011     300.7184   -207.40059     -8096752    65445.028     -8031307    739266.47    1.1174766    68.257858    68.257858    158.67032 
   48500    73011    301.28526   -1618.9012   -8096537.8    65568.392   -8030969.4    739511.06     1.117107    68.261537    68.261537    158.70571 
   48600    73011    301.23967   -797.38887   -8096631.1    65558.471   -8031072.6     739325.1     1.117388    68.245346    68.245346    158.74109 
   48700    73011    298.92208    -1240.661   -8096676.8    65054.095   -8031622.7    738923.05    1.1179959    68.219185    68.219185    158.77648 
   48800    73011    299.55799    -821.2157   -8096808.6    65192.488   -8031616.1    739331.29    1.1173786    68.230424    68.230424    158.81186 
   48900    73011    299.98135   -585.00316     -8096607    65284.624   -8031322.3    739426.75    1.1172344    68.227228    68.227228    158.84725 
   49000    73011    300.76451   -747.98272   -8096489.7    65455.062   -8031034.7    739495.18     1.117131    68.222787    68.222787    158.88264 
   49100    73011    301.34394   -1541.0275   -8096557.6    65581.163   -8030976.4    739886.47    1.1165402    68.233236    68.233236    158.91802 
   49200    73011    298.78971   -1792.4816   -8096531.7    65025.289   -8031506.4     740114.6     1.116196    68.236158    68.236158    158.95341 
   49300    73011    299.98761   -1623.1499   -8096864.2    65285.985   -8031578.2    740271.19    1.1159599    68.235781    68.235781    158.98879 
   49400    73011    301.00941   -544.62523   -8096887.6     65508.36   -8031379.2    740909.23    1.1149989    68.257586    68.257586    159.02418 
   49500    73011    300.39341   -621.15051   -8096629.8    65374.299   -8031255.5    741491.35    1.1141235    68.276798    68.276798    159.05957 
   49600    73011    300.12392   -1549.9507     -8096545    65315.651   -8031229.4    742108.88    1.1131964    68.297627    68.297627    159.09495 
   49700    73011    299.26263   -551.84777   -8096363.2     65128.21     -8031235    742355.09    1.1128272     68.30136     68.30136    159.13034 
   49800    73011    300.17004    -1434.187   -8096574.4    65325.687   -8031248.7    742341.01    1.1128483     68.29312     68.29312    159.16572 
   49900    73011      299.849   -1130.6537     -8096450    65255.821   -8031194.1       742385    1.1127824    68.287553    68.287553    159.20111 
   50000    73011    299.90889   -72.383017   -8096323.2    65268.855   -8031054.3    742225.49    1.1130215    68.272629    68.272629     159.2365 
   50100    73011     301.2576   -290.88618   -8096397.3    65562.373     -8030835     742520.2    1.1125798    68.278596    68.278596    159.27188 
   50200    73011    301.42912    -1196.163   -8096511.1      65599.7   -8030911.4    742622.99    1.1124258    68.275738    68.275738    159.30727 
   50300    73011    299.36975    55.264311   -8096520.9    65151.522   -8031369.3    742104.33    1.1132033    68.244312    68.244312    159.34265 
   50400    73011    299.33189   -803.28634   -8096688.1    65143.282   -8031544.8    742036.37    1.1133052    68.233611    68.233611    159.37804 
   50500    73011    299.28687   -518.50854   -8096652.3    65133.485   -8031518.8    741288.55    1.1144283     68.19165     68.19165    159.41342 
   50600    73011    300.33171   -304.44822   -8096687.6    65360.873   -8031326.7    741081.68    1.1147394    68.174568    68.174568    159.44881 
   50700    73011    301.94529   -2197.7829   -8096497.6    65712.034   -8030785.6    741186.27    1.1145821    68.171815    68.171815     159.4842 
   50800    73011     301.3401   -939.66763     -8096350    65580.326   -8030769.7    740726.96    1.1152732    68.143129    68.143129    159.51958 
   50900    73011    300.75633   -469.12108   -8096601.7    65453.282   -8031148.5    740869.61    1.1150585    68.142133    68.142133    159.55497 
   51000    73011    299.57817   -1116.6612   -8096562.5    65196.881   -8031365.6    740727.04    1.1152731    68.128022    68.128022    159.59035 
   51100    73011     298.8001    60.330581   -8096492.5    65027.549   -8031464.9    740683.37    1.1153389    68.118462    68.118462    159.62574 
   51200    73011     299.1553   -2096.7684   -8096559.1     65104.85   -8031454.2    741148.73    1.1146386    68.132307    68.132307    159.66113 
   51300    73011    300.15957   -910.78706     -8096511     65323.41   -8031187.6    740906.68    1.1150027    68.113632    68.113632    159.69651 
   51400    73011    301.47233   -404.29866   -8096405.7    65609.104   -8030796.6    740895.76    1.1150192    68.105585    68.105585     159.7319 
[...]
  287600    73011    300.84112    457.99392   -8099140.2    65471.734   -8033668.5    1065246.2   0.77551365    66.167087    66.167087    243.31336 
  287700    73011    298.69226    466.14214   -8098969.2    65004.081   -8033965.2    1065300.1   0.77547443    66.163949    66.163949    243.34875 
  287800    73011    300.72113    1023.2506   -8099359.5    65445.622   -8033913.9    1065961.4   0.77499335     66.17967     66.17967    243.38414 
  287900    73011    300.60914    1289.1274   -8098870.9    65421.249   -8033449.6    1066554.2   0.77456258    66.193258    66.193258    243.41952 
  288000    73011    300.34065   -15.631289   -8098633.9    65362.818   -8033271.1    1067086.5   0.77417619    66.204963    66.204963    243.45491 
  288100    73011    300.44235   -359.76741   -8098889.3     65384.95   -8033504.3    1067466.4    0.7739007    66.211934    66.211934    243.49029 
  288200    73011    299.48244    -545.1171   -8098870.8    65176.046   -8033694.7    1067907.5   0.77358097    66.220804    66.220804    243.52568 
  288300    73011    299.08032    596.36035   -8098950.1    65088.533   -8033861.5    1067858.5   0.77361652    66.214472    66.214472    243.56107 
  288400    73011    299.54401   -367.82025   -8098974.4    65189.446   -8033784.9    1068004.9   0.77351046    66.214201    66.214201    243.59645 
  288500    73011     300.1817     157.5154   -8098837.2    65328.225   -8033508.9    1067887.8    0.7735953    66.205762    66.205762    243.63184 
  288600    73011    302.43266   -338.39736   -8099004.8    65818.101   -8033186.7    1067406.1    0.7739444    66.186022    66.186022    243.66722 
  288700    73011    300.69794   -550.88501   -8099031.2    65440.574   -8033590.6    1066582.8   0.77454181    66.155689    66.155689    243.70261 
  288800    73011     299.8504   -257.34506   -8099034.4    65256.125   -8033778.3    1066287.7   0.77475615    66.141735    66.141735      243.738 
  288900    73011    300.44842   -262.33703   -8099232.1    65386.272   -8033845.8    1066217.8   0.77480694    66.134767    66.134767    243.77338 
  289000    73011    300.17183   -321.47429     -8099139    65326.077   -8033812.9    1066013.7   0.77495529    66.123637    66.123637    243.80877 
  289100    73011    300.94986    549.18408   -8098975.2      65495.4   -8033479.8      1065246   0.77551382    66.095026    66.095026    243.84415 
  289200    73011    300.27048   -933.36672   -8098577.6    65347.547   -8033230.1    1064619.9    0.7759699    66.070805    66.070805    243.87954 
  289300    73011    301.21885    2070.5739   -8099035.9    65553.939   -8033481.9    1064785.8     0.775849     66.07116     66.07116    243.91492 
  289400    73011    299.26212   -464.21307   -8099012.9    65128.099   -8033884.8    1065712.6   0.77517422    66.095116    66.095116    243.95031 
  289500    73011    300.92068    1754.3196     -8099388    65489.048     -8033899    1065800.6   0.77511027    66.093049    66.093049     243.9857 
  289600    73011      300.443    163.73738   -8099207.1    65385.092     -8033822    1066314.7   0.77473653    66.104196    66.104196    244.02108 
  289700    73011    300.90026   -828.03774   -8098949.9    65484.605   -8033465.3    1067586.4   0.77381371    66.138806    66.138806    244.05647 
  289800    73011    301.39379      -245.59   -8098811.1    65592.012   -8033219.1    1068786.9   0.77294451    66.171186    66.171186    244.09185 
  289900    73011    300.16548   -1203.4456   -8098824.4    65324.696   -8033499.7    1069851.8    0.7721751    66.199346    66.199346    244.12724 
  290000    73011    298.77815    321.13949   -8099037.7    65022.772     -8034015      1070181   0.77193763     66.20473     66.20473    244.16263 
  290100    73011    299.70231   -428.51722   -8099217.8    65223.897   -8033993.9    1069702.4   0.77228295    66.185131    66.185131    244.19801 
  290200    73011    300.73805    89.955281   -8099150.6    65449.304   -8033701.2    1069592.1   0.77236266    66.176921    66.176921     244.2334 
  290300    73011    299.96819   -211.41287   -8098685.7     65281.76     -8033404    1069289.7   0.77258109    66.162773    66.162773    244.26878 
  290400    73011    300.89773   -427.05261   -8098904.1    65484.055   -8033420.1    1069701.5   0.77228362    66.170721    66.170721    244.30417 
  290500    73011    298.98647    262.33143   -8098997.6     65068.11   -8033929.5    1070460.7   0.77173594    66.189403    66.189403    244.33956 
  290600    73011    299.65646    730.90796   -8099156.4    65213.918   -8033942.5    1070554.8   0.77166811     66.18752     66.18752    244.37494 
  290700    73011    299.63756    80.254585   -8098981.3    65209.804   -8033771.5    1071043.4   0.77131605    66.197831    66.197831    244.41033 
  290800    73011    300.97635   -402.49274   -8099099.8    65501.164   -8033598.6    1071311.6   0.77112293    66.201327    66.201327    244.44571 
  290900    73011    299.79255   -246.38219   -8099061.4    65243.536   -8033817.9    1071431.3   0.77103683    66.200232    66.200232     244.4811 
  291000    73011    298.81188   -673.90672   -8099245.2    65030.114   -8034215.1    1072160.8   0.77051216    66.217975    66.217975    244.51648 
  291100    73011    299.19205    62.436184   -8099219.7    65112.849   -8034106.8    1072353.7   0.77037362    66.219138    66.219138    244.55187 
  291200    73011    299.05495    254.53367     -8098720    65083.012     -8033637    1072177.4   0.77050029    66.208904    66.208904    244.58726 
  291300    73011      300.371   -15.172807   -8098908.3    65369.423   -8033538.9    1072007.9   0.77062208    66.198884    66.198884    244.62264 
  291400    73011    299.39366    584.35087   -8098889.1    65156.726   -8033732.3    1072737.8   0.77009777    66.216627    66.216627    244.65803 
  291500    73011    299.70206    -1120.251   -8099055.7    65223.843   -8033831.9    1073126.8   0.76981858    66.223844    66.223844    244.69341 
  291600    73011    298.86876   -294.26858   -8098787.3    65042.492   -8033744.8    1073113.6   0.76982809    66.218647    66.218647     244.7288 
  291700    73011    300.87064   -424.32712   -8098743.1    65478.159     -8033265    1073989.9   0.76919994     66.24089     66.24089    244.76419 
  291800    73011    301.37282    1285.7572     -8098832    65587.448   -8033244.6    1073842.9   0.76930526    66.231569    66.231569    244.79957 
  291900    73011    299.99639   -176.20983   -8098959.7    65287.898   -8033671.8    1074808.8   0.76861387    66.256562    66.256562    244.83496 
  292000    73011    300.02099   -76.904254   -8099070.9     65293.25   -8033777.6    1075300.2   0.76826266    66.266916    66.266916    244.87034 
  292100    73011    299.49129    654.45232     -8099110    65177.973     -8033932      1074856   0.76858011    66.248443    66.248443    244.90573 
  292200    73011    299.91522   -307.35513   -8099324.6    65270.232   -8034054.4    1074793.3   0.76862493    66.241726    66.241726    244.94112 
  292300    73011    298.39633   -190.03768   -8098874.8    64939.678   -8033935.1    1074927.6   0.76852891    66.241079    66.241079     244.9765 
  292400    73011    300.36543   -576.42395   -8098761.1    65368.212   -8033392.9    1074785.5   0.76863053    66.231917    66.231917    245.01189 
  292500    73011    302.37681    487.84888   -8099035.4    65805.945   -8033229.5    1074351.3   0.76894119    66.213755    66.213755    245.04727 
  292600    73011    301.52916    624.47203   -8099120.7    65621.472   -8033499.2    1073116.8   0.76982574    66.170926    66.170926    245.08266 
  292700    73011    299.74414    891.77646   -8099099.6    65232.999   -8033866.6    1072584.4   0.77020788    66.149733    66.149733    245.11804 
  292800    73011    299.87697   -262.73064   -8099195.2    65261.907   -8033933.3    1072536.3   0.77024244    66.143475    66.143475    245.15343 
  292900    73011    299.58972    38.933538   -8099134.4    65199.394   -8033935.1    1071905.3   0.77069584    66.119244    66.119244    245.18882 
  293000    73011    299.64436   -265.68275   -8099030.7    65211.284   -8033819.5      1071390   0.77106654    66.098579    66.098579     245.2242 
  293100    73011    301.35511   -226.56994     -8099081    65583.593   -8033497.4    1071428.5   0.77103885    66.094998    66.094998    245.25959 
  293200    73011    300.73713    646.81469     -8099113    65449.104   -8033663.9    1071260.4   0.77115978    66.085048    66.085048    245.29497 
  293300    73011    299.65973    368.65246   -8099252.8     65214.63   -8034038.2      1071358   0.77108953    66.083292    66.083292    245.33036 
  293400    73011     299.3387   -844.37406   -8099224.4    65144.764   -8034079.7    1071712.6   0.77083441     66.08946     66.08946    245.36575 
  293500    73011    299.89973    142.39286   -8099167.6    65266.861   -8033900.8    1072145.1   0.77052345    66.098029    66.098029    245.40113 
  293600    73011    300.13948     948.4035     -8098669    65319.038     -8033350      1072952   0.76994402    66.118129    66.118129    245.43652 
  293700    73011    300.00676    596.30605   -8098431.8    65290.153   -8033141.7    1072512.1   0.77025978     66.09981     66.09981     245.4719 
  293800    73011    300.35532   -179.92713   -8098765.3     65366.01   -8033399.3    1073108.4   0.76983181    66.113416    66.113416    245.50729 
  293900    73011     301.0902   -975.07569   -8099295.2    65525.941   -8033769.2    1074274.7   0.76899599    66.144569    66.144569    245.54268 
  294000    73011     300.2892   -200.75527   -8099411.2    65351.621   -8034059.6      1074812   0.76861161    66.156339    66.156339    245.57806 
  294100    73011    299.24361    264.26739   -8099214.1    65124.069   -8034090.1    1075308.5   0.76825669    66.166852    66.166852    245.61345 
  294200    73011    300.23363   -1199.4507   -8099211.9    65339.527   -8033872.4    1076078.3   0.76770711    66.185764    66.185764    245.64883 
  294300    73011    300.99223    -317.9828   -8098985.4     65504.62   -8033480.8    1076300.7   0.76754845    66.187837    66.187837    245.68422 
  294400    73011    301.77456    715.30006   -8098809.6    65674.879   -8033134.7    1076760.5    0.7672207    66.197206    66.197206     245.7196 
  294500    73011    301.16594   -427.09286   -8098923.9    65542.424   -8033381.4    1076666.2   0.76728793     66.18954     66.18954    245.75499 
  294600    73011    300.02955     388.9753   -8099221.6    65295.114   -8033926.5    1076391.9   0.76748345    66.176344    66.176344    245.79038 
  294700    73011    297.99639   -781.25914   -8098839.5    64852.638   -8033986.9    1076206.4   0.76761574    66.165879    66.165879    245.82576 
  294800    73011    301.14077    267.69992   -8099214.4    65536.947   -8033677.4    1075458.3   0.76814969    66.138119    66.138119    245.86115 
  294900    73011    300.66198   -672.13049   -8099053.6    65432.749   -8033620.8    1075948.5   0.76779974    66.148429    66.148429    245.89653 
  295000    73011    300.05903    487.32642   -8099317.6    65301.528     -8034016    1076404.3   0.76747458     66.15768     66.15768    245.93192 
  295100    73011    299.20944    505.61885   -8099272.9    65116.635   -8034156.3    1076789.6   0.76719996     66.16476     66.16476    245.96731 
  295200    73011    298.84427   -626.13485     -8099029    65037.163   -8033991.9    1077076.3    0.7669958    66.168806    66.168806    246.00269 
  295300    73011    299.82051   -1145.6334   -8099006.1    65249.621   -8033756.5    1077639.1   0.76659523    66.181331    66.181331    246.03808 
  295400    73011    300.58171    65.660948   -8098996.2     65415.28     -8033581    1077911.9   0.76640122    66.184948    66.184948    246.07346 
  295500    73011    299.96881    64.978905   -8098899.3    65281.894   -8033617.4    1078129.4   0.76624661    66.186867    66.186867    246.10885 
  295600    73011    299.97285     887.5851   -8099284.4    65282.774   -8034001.6    1078203.7   0.76619376    66.184391    66.184391    246.14424 
  295700    73011    298.48453    438.28296   -8099241.7    64958.873   -8034282.9    1077286.7   0.76684595    66.151486    66.151486    246.17962 
  295800    73011    298.92628    66.480585   -8099149.4     65055.01   -8034094.4    1076290.1   0.76755607    66.116127    66.116127    246.21501 
  295900    73011    300.05207    -662.4894   -8099238.9    65300.015   -8033938.9      1076238   0.76759323    66.109776    66.109776    246.25039 
  296000    73011    299.32118   -449.61596   -8099045.6    65140.952   -8033904.6    1076105.4   0.76768779    66.100955    66.100955    246.28578 
  296100    73011    299.43917   -254.14071     -8099075    65166.629   -8033908.3    1075776.4   0.76792258    66.086102    66.086102    246.32116 
  296200    73011    299.46665   -150.61062   -8098983.8    65172.611   -8033811.2    1075899.9   0.76783444    66.085148    66.085148    246.35655 
  296300    73011    299.56636    850.34349   -8098891.3    65194.309     -8033697    1076500.4   0.76740611    66.098841    66.098841    246.39194 
  296400    73011    300.17692    330.46896   -8099120.6    65327.186   -8033793.4    1077542.3   0.76666405    66.126074    66.126074    246.42732 
  296500    73011    299.64541   -508.60943   -8099351.3    65211.513   -8034139.8    1078073.6   0.76628621    66.137627    66.137627    246.46271 
  296600    73011    300.00481    213.48403     -8099514     65289.73   -8034224.3    1078675.7   0.76585849    66.151343    66.151343    246.49809 
  296700    73011     299.8567   -256.21654   -8099201.8    65257.497   -8033944.3    1078841.3   0.76574097    66.151672    66.151672    246.53348 
  296800    73011    298.96438   -98.860973   -8098501.2    65063.303   -8033437.9    1078771.2   0.76579071    66.144777    66.144777    246.56887 
  296900    73011     300.2015   -528.76098   -8098761.3    65332.535   -8033428.8    1078953.8    0.7656611    66.145628    66.145628    246.60425 
  297000    73011    298.67988    158.67322   -8098627.7    65001.385   -8033626.3    1078839.5   0.76574224    66.137379    66.137379    246.63964 
  297100    73011    299.66579   -74.578166   -8098950.7    65215.949   -8033734.8    1079067.3   0.76558054    66.139618    66.139618    246.67502 
  297200    73011    299.21935    247.17868   -8099168.2    65118.791   -8034049.5    1078988.1   0.76563675    66.132447    66.132447    246.71041 
  297300    73011    297.41182    545.95972   -8099302.5     64725.42     -8034577    1079538.2   0.76524665    66.144558    66.144558     246.7458 
  297400    73011    298.30802   -398.03369   -8099356.3    64920.458   -8034435.8    1079750.8   0.76509598    66.146328    66.146328    246.78118 
  297500    73011    299.33401    2114.7458   -8099299.3    65143.744   -8034155.5    1079032.8   0.76560506    66.119592    66.119592    246.81657 
  297600    73011    300.28379   -643.27893   -8099274.6    65350.444   -8033924.1    1080076.1   0.76486551    66.146809    66.146809    246.85195 
  297700    73011    299.45116    97.130376   -8098918.5    65169.239   -8033749.3    1080415.5   0.76462526    66.152458    66.152458    246.88734 
  297800    73011    302.17635   -320.94598   -8099374.5    65762.319   -8033612.2    1081227.5   0.76405101    66.172571    66.172571    246.92272 
  297900    73011    299.64606    527.03946   -8099222.9    65211.655   -8034011.3    1081388.7   0.76393709    66.172764    66.172764    246.95811 
  298000    73011    299.46324    75.138412   -8099437.8    65171.868   -8034265.9    1081718.6   0.76370415    66.178113    66.178113     246.9935 
  298100    73011    301.08274    822.86367   -8099638.1    65524.318   -8034113.8    1082080.2   0.76344893    66.184433    66.184433    247.02888 
  298200    73011    301.10857    401.17673   -8099376.9    65529.939     -8033847    1081941.3   0.76354696    66.175445    66.175445    247.06427 
  298300    73011    300.92046    72.974513     -8098816    65489.002     -8033327    1081930.7   0.76355438    66.170385    66.170385    247.09965 
  298400    73011    300.96404    271.10775   -8098628.6    65498.486   -8033130.1    1082461.9   0.76317971    66.181887    66.181887    247.13504 
  298500    73011    301.20778   -384.30361   -8098954.3     65551.53   -8033402.7    1083066.4   0.76275374    66.195626    66.195626    247.17043 
  298600    73011    300.64849    64.185598   -8099092.3    65429.812   -8033662.5    1082205.5   0.76336053    66.164576    66.164576    247.20581 
  298700    73011    300.72273    -137.5977   -8099301.5    65445.969   -8033855.6    1081180.3   0.76408434    66.128497    66.128497     247.2412 
  298800    73011    301.19597   -57.062096   -8099615.4    65548.961   -8034066.5    1080771.7   0.76437322    66.111268    66.111268    247.27658 
  298900    73011    298.49015   -1311.4145   -8099375.9    64960.095   -8034415.8    1081138.1   0.76411416    66.117744    66.117744    247.31197 
  299000    73011    298.25329   -821.50183   -8099190.3    64908.549   -8034281.7    1081005.9   0.76420767    66.108969    66.108969    247.34736 
  299100    73011    300.33174    649.16565   -8099041.8    65360.879   -8033680.9    1080518.6   0.76455227    66.089342    66.089342    247.38274 
  299200    73011    299.29682    1733.0172   -8098796.7    65135.651   -8033661.1    1080924.1   0.76426544    66.097015    66.097015    247.41813 
  299300    73011    300.05457   -73.637855     -8099040    65300.559   -8033739.4    1081213.2   0.76406109    66.101127    66.101127    247.45351 
  299400    73011    300.40102   -845.14793   -8099228.9    65375.955   -8033852.9    1082026.4   0.76348689    66.121251    66.121251     247.4889 
  299500    73011    299.32886    -465.4739   -8099220.4    65142.624   -8034077.8    1082230.3   0.76334304    66.122754    66.122754    247.52429 
  299600    73011    298.74356     844.0996   -8099237.4    65015.245   -8034222.2    1082008.3   0.76349962    66.111248    66.111248    247.55967 
  299700    73011    299.48185    814.69071   -8099268.2    65175.918   -8034092.3    1081808.6   0.76364063     66.10042     66.10042    247.59506 
  299800    73011    300.27171    688.54886     -8099122    65347.814   -8033774.2    1081745.6   0.76368507    66.093774    66.093774    247.63044 
  299900    73011    299.56424    377.36465   -8098793.1    65193.849   -8033599.2    1082042.9   0.76347528    66.098132    66.098132    247.66583 
  300000    73011    300.55197    80.573062   -8098970.5    65408.808   -8033561.7    1082372.4   0.76324283    66.103474    66.103474    247.70121 
Loop time of 147132 on 56 procs for 300000 steps with 73011 atoms

Performance: 0.044 ns/day, 544.932 hours/ns, 2.039 timesteps/s
95.1% CPU use with 56 MPI tasks x no OpenMP threads

MPI task timing breakdown:
Section |  min time  |  avg time  |  max time  |%varavg| %total
---------------------------------------------------------------
Pair    | 43402      | 67432      | 78115      |3971.4 | 45.83
Neigh   | 2495.7     | 4703.7     | 6185.4     |1597.9 |  3.20
Comm    | 2953.9     | 13030      | 35856      |8749.8 |  8.86
Output  | 6.9347     | 6.9536     | 7.0993     |   0.8 |  0.00
Modify  | 59220      | 61950      | 65341      | 649.0 | 42.10
Other   |            | 8.979      |            |       |  0.01

Nlocal:    1303.77 ave 2151 max 0 min
Histogram: 16 0 0 0 0 1 3 6 18 12
Nghost:    10216.7 ave 16085 max 1714 min
Histogram: 16 0 0 0 0 3 13 0 7 17
Neighs:    1.11912e+06 ave 2.0104e+06 max 0 min
Histogram: 16 0 0 0 2 1 9 12 7 9

Total # of neighbors = 62670957
Ave neighs/atom = 858.377
Neighbor list builds = 30000
Dangerous builds not checked
write_restart restart.after_deform
unfix 1
unfix 2
unfix 3
unfix std
unfix bd

Please see the log.cite file for references relevant to this simulation

Total wall time: 40:52:14
